Loading openmpi/5.0.6/gcc-14.2.0
  Loading requirement: gcc/14.2.0

                                 *****************
                                 * O   R   C   A *
                                 *****************

                                            #,                                       
                                            ###                                      
                                            ####                                     
                                            #####                                    
                                            ######                                   
                                           ########,                                 
                                     ,,################,,,,,                         
                               ,,#################################,,                 
                          ,,##########################################,,             
                       ,#########################################, ''#####,          
                    ,#############################################,,   '####,        
                  ,##################################################,,,,####,       
                ,###########''''           ''''###############################       
              ,#####''   ,,,,##########,,,,          '''####'''          '####       
            ,##' ,,,,###########################,,,                        '##       
           ' ,,###''''                  '''############,,,                           
         ,,##''                                '''############,,,,        ,,,,,,###''
      ,#''                                            '''#######################'''  
     '                                                          ''''####''''         
             ,#######,   #######,   ,#######,      ##                                
            ,#'     '#,  ##    ##  ,#'     '#,    #''#        ,####,    ,#,          
            ##       ##  ##   ,#'  ##            #'  '#       #'       ,# #          
            ##       ##  #######   ##           ,######,      #####,      #          
            '#,     ,#'  ##    ##  '#,     ,#' ,#      #,     #,   #      #          
             '#######'   ##     ##  '#######'  #'      '#     '####' #    #          



                #########################################################
                #                        -***-                          #
                #          Department of theory and spectroscopy        #
                #                                                       #
                #                      Frank Neese                      #
                #                                                       #
                #     Directorship, Architecture, Infrastructure        #
                #                    SHARK, DRIVERS                     #
                #        Core code/Algorithms in most modules           #
                #                                                       #
                #        Max Planck Institute fuer Kohlenforschung      #
                #                Kaiser Wilhelm Platz 1                 #
                #                 D-45470 Muelheim/Ruhr                 #
                #                      Germany                          #
                #                                                       #
                #                  All rights reserved                  #
                #                        -***-                          #
                #########################################################


                         Program Version 6.1.0  -  RELEASE   -
                                (GIT: $679e74b$)
                          ($2025-06-10 18:02:51 +0200$)


 With contributions from (in alphabetic order):
[Max-Planck-Institut fuer Kohlenforschung]                               
  Daniel Aravena         : Magnetic Suceptibility                        
  Michael Atanasov       : Ab Initio Ligand Field Theory (pilot matlab implementation)
  Alexander A. Auer      : GIAO ZORA, VPT2 properties, NMR spectrum      
  Ute Becker             : All parallelization in ORCA, NUMFREQ, NUMCALC 
  Giovanni Bistoni       : ED, misc. LED, open-shell LED, HFLD           
  Dmytro Bykov           : pre 5.0 version of the SCF Hessian            
  Marcos Casanova-Páez   : Triplet and SCS-CIS(D). UHF-(DLPNO)-IP/EA/STEOM-CCSD. UHF-CVS-IP/STEOM-CCSD   
  Vijay G. Chilkuri      : MRCI spin determinant printing, contributions to CSF-ICE 
  Pauline Colinet        : FMM embedding                                 
  Dipayan Datta          : RHF DLPNO-CCSD density                        
  Achintya Kumar Dutta   : EOM-CC, STEOM-CC                              
  Nicolas Foglia         : Exact transition moments, OPA infrastructure, MCD improvements    
  Dmitry Ganyushin       : Spin-Orbit,Spin-Spin,Magnetic field MRCI      
  Miquel Garcia-Rates    : C-PCM and meta-GGA Hessian, CCSD/C-PCM, Gaussian charge scheme 
  Tiago L. C. Gouveia    : GS-ROHF, GS-ROCIS                             
  Yang Guo               : DLPNO-NEVPT2, F12-NEVPT2, CIM, IAO-localization        
  Andreas Hansen         : Spin unrestricted coupled pair/coupled cluster methods 
  Ingolf Harden          : AUTO-CI MPn and infrastructure                
  Benjamin Helmich-Paris : MC-RPA, TRAH-(SCF,CASSCF), AVAS, COSX integrals, SCF dyn. polar., MC-PDFT, srDFT 
  Lee Huntington         : MR-EOM, pCC                                   
  Robert Izsak           : Overlap fitted RIJCOSX, COSX-SCS-MP3, EOM     
  Riya Kayal             : Wick's Theorem for AUTO-CI, AUTO-CI UHF-CCSDT 
  Emily Kempfer          : AUTO-CI RHF CISDT and CCSDT, approximate NEVPT4
  Christian Kollmar      : KDIIS, OOCD, Brueckner-CCSD(T), CCSD density, CASPT2, CASPT2-K, improved NEVPT2 
  Axel Koslowski         : Symmetry handling                             
  Simone Kossmann        : meta-GGA functionals, TD-DFT gradient, OOMP2, (MP2 Hessian; deprecated post 5.0) 
  Lucas Lang             : DCDCAS, Hyperfine gauge corrections, ICE-SOC+SSC
  Marvin Lechner         : AUTO-CI (C++ implementation), FIC-MRCC        
  Spencer Leger          : CASSCF response                               
  Dagmar Lenk            : GEPOL surface, SMD, ORCA-2-JSON               
  Dimitrios Liakos       : Extrapolation schemes; Compound Job, Property file
  Dimitrios Manganas     : Further ROCIS development; embedding schemes. LFT, Crystal Embedding 
  Dimitrios Pantazis     : SARC Basis sets                               
  Anastasios Papadopoulos: AUTO-CI, single reference methods and gradients 
  Taras Petrenko         : pre 6.0 DFT Hessian and TD-DFT gradient,  ECA, NRVS 
  Petra Pikulova         : Analytic Raman intensities                    
  Peter Pinski           : DLPNO-MP2, DLPNO-MP2 Gradient                 
  Shashank Vittal Rao    : ES-AILFT, MagRelax                            
  Christoph Reimann      : Effective Core Potentials                     
  Marius Retegan         : Local ZFS, SOC                                
  Christoph Riplinger    : Optimizer, TS searches, QM/MM, DLPNO-CCSD(T), (RO)-DLPNO pert. Triples 
  Michael Roemelt        : Original ROCIS implementation, recursive CI coupling coefficients
  Masaaki Saitow         : Open-shell DLPNO-CCSD energy and density      
  Barbara Sandhoefer     : DKH picture change effects                    
  Yorick L. A. Schmerwitz: GMF and freeze-and-release deltaSCF, NEB S-IDPP initial path                    
  Kantharuban Sivalingam : CASSCF convergence/infrastructure, NEVPT2, NEVPT3, NEVPT4(SD), FIC-MRCI and CEPA variants
  Bernardo de Souza      : ESD, SOC TD-DFT                               
  Georgi L. Stoychev     : AutoAux, RI-MP2 NMR, DLPNO-MP2 response, X2C  
  Van Anh Tran           : RI-MP2 g-tensors                              
  Willem Van den Heuvel  : Paramagnetic NMR                              
  Zikuan Wang            : NOTCH, Electric field optimization            
  Frank Wennmohs         : Technical directorship and infrastructure     
  Hang Xu                : AUTO-CI-Response properties                   
                                                                         
[FACCTs GmbH]                                                            
  Markus Bursch, Nicolas Foglia, Miquel Garcia-Rates, Ingolf Harden, Hagen Neugebauer, Anastasios Papadopoulos, 
  Christoph Riplinger, Bernardo de Souza, Georgi L. Stoychev                                                    
                                                                 
  APM, various basis sets, CI-OPT, improved COSX, DLPNO-Multilevel,           
  DOCKER, DRACO, updates on ESD, Fragmentator, GOAT, IRC, LR-CPCM, L-BFGS, MBIS, meta-GGA TD-DFT gradient, ML-optimized integration grids, 
  MM, NACMEs, nearIR, NEB, NEB-TS, NL-DFT gradient (VV10), 2- and 3-layer-ONIOM, interface openCOSMO-RS, QMMM,   
  Crystal-QMMM, RESP, rigid body optimization, SF, symmetry and pop. for TD-DFT, various functionals, SOLVATOR                                   
                                                                         
[Other institutions]                                                     
  V. Asgeirsson          : NEB                                           
  Christoph Bannwarth    : sTDA-DFT, sTD-DFT, PBEh-3c, B97-3c, D3        
  Giovanni Bistoni       : ETS/NOCV, ADLD/ADEX, COVALED                  
  Martin Brehm           : Molecular dynamics                            
  Ronald Cardenas        : ETS/NOCV                                      
  Martina Colucci        : COVALED                                       
  Sebastian Ehlert       : rSCAN, r2SCAN, r2SCAN-3c, D4, dhf basis sets  
  Marvin Friede          : D4 for Fr, Ra, Ac-Lr                          
  Lars Goerigk           : TD-DFT with DH, B97 family of functionals     
  Stefan Grimme          : VdW corrections, initial TS optimization, DFT functionals, gCP, sTDA/sTD-DF 
  Waldemar Hujo          : DFT-NL                                        
  H. Jonsson             : NEB                                           
  Holger Kruse           : gCP                                           
  Marcel Mueller         : wB97X-3c, vDZP basis set                      
  Hagen Neugebauer       : wr2SCAN, Native XTB                           
  Gianluca Regni         : ADLD/ADEX                                     
  Tobias Risthaus        : pre 6.0 range-separated hybrid DFT and stability analysis
  Lukas Wittmann         : regularized MP2, r2SCAN double-hybrids, wr2SCAN        
                                                                         
We gratefully acknowledge several colleagues who have allowed us to      
interface, adapt or use parts of their codes:                            
  Ed Valeev, F. Pavosevic, A. Kumar             : LibInt (2-el integral package), F12 methods 
  Garnet Chan, S. Sharma, J. Yang, R. Olivares  : DMRG                   
  Ulf Ekstrom                                   : XCFun DFT Library      
  Mihaly Kallay                                 : mrcc  (arbitrary order and MRCC methods)
  Frank Weinhold                                : gennbo (NPA and NBO analysis)           
  Simon Mueller                                 : openCOSMO-RS                            
  Christopher J. Cramer and Donald G. Truhlar   : smd solvation model                     
  S Lehtola, MJT Oliveira, MAL Marques          : LibXC Library                           
  Liviu Ungur et al                             : ANISO software                          


 Your calculation uses the libint2 library for the computation of 2-el integrals
 For citations please refer to: http://libint.valeyev.net

 Your ORCA version has been built with support for libXC version: 7.0.0
 For citations please refer to: https://libxc.gitlab.io

 This ORCA versions uses:
   CBLAS   interface :  Fast vector & matrix operations
   LAPACKE interface :  Fast linear algebra routines
   SCALAPACK package :  Parallel linear algebra routines
   Shared memory     :  Shared parallel matrices
   BLAS/LAPACK       :  OpenBLAS 0.3.29  USE64BITINT DYNAMIC_ARCH NO_AFFINITY Cooperlake SINGLE_THREADED
        Core in use  :  Cooperlake
   Copyright (c) 2011-2014, The OpenBLAS Project


  ***********************************
  * Starting time: Wed May 13 14:54:46 2026
  * Host name:     node050.aire.lee.alces.network
  * Process ID:    3819025
  * Working dir.:  /tmp/job.4919730
  ***********************************

NOTE: MaxCore=4000 MB was set to SCF,MP2,MDCI,CIPSI,MRCI,RASCI and CIS
      => If you want to overwrite this, your respective input block should be placed after the MaxCore statement


***************************************
The coordinates will be read from file: conf_029.xyz
***************************************


Your calculation utilizes the atom-pairwise dispersion correction
based on EEQ partial charges (D4)


================================================================================

cite the ECPs for C  [vDZP-ECP], F  [vDZP-ECP], O  [vDZP-ECP] as follows:
   B-Ne (ecp-2-mwb), Al-Ar (ecp-10-mwb), Ga-Kr (ecp-28-mwb), Y-Cd (ecp-28-mwb), In-Xe (ecp-46-mwb):
     A. Bergner, M. Dolg, W. Küchle, H. Stoll, and H. Preuß, Mol. Phys. 80, 1431 (1993)., T. Leininger, A. Berning, A. Nicklass, H. Stoll, H.-J. Werner, and H.-J.Flad, Chem. Phys. 217, 19 (1997).
   Na-Mg, K-Ca, Rb-Sr, Cs-Ba (CRENBL):
     L. Fernandez Pacios and P. A. Christiansen, J. Chem. Phys. 82, 2664 (1985)., M. M. Hurley, L. F. Pacios, P. A. Christiansen, R. B. Ross, and W. C. Ermler, J. Chem. Phys. 84, 6840 (1986)., L. A. LaJohn, P. A. Christiansen, R. B. Ross, T. Atashroo, and W. C. Ermler, J. Chem. Phys. 87, 2812 (1987)., R. B. Ross, J. M. Powers, T. Atashroo, W. C. Ermler, L. A. LaJohn, and P. A. Christiansen, J. Chem. Phys. 93, 6654 (1990). 
   Sc-Zn (ecp-10-mdf):
     M. Dolg, U. Wedig, H. Stoll, and H. Preuss, J. Chem. Phys. 86, 866 (1986). 
   Y-Cd (ecp-28-mwb), Hf-Hg (ecp-60-mwb):
     D. Andrae, U. Häußermann, M. Dolg, H. Stoll, and H. Preuß, Theor. Chim. Acta 77, 123 (1990). 
   La (ecp-46-mwb):
     M. Dolg, H. Stoll, and H. Preuss, J. Chem. Phys. 90, 1730 (1989)., M. Dolg, H. Stoll, and H. Preuss, Theor. Chim. Acta 85, 441 (1993).
   Ce-Lu (SBKJC-ecp):
     T. R. Cundari and W. J. Stevens, J. Chem. Phys. 98, 5555 (1993).
   Tl-Rn (ecp-78-mwb):
     W. Küchle, M. Dolg, H. Stoll, and H. Preuss, Mol. Phys. 74, 1245 (1991).

ECP parameters for C  [vDZP-ECP], F  [vDZP-ECP], O  [vDZP-ECP] have been obtained from:
MM, AH, SG, J. Chem. Phys. 158, 014103 (2023), 10.1063/5.0133026

----- Orbital basis set information -----
Your calculation utilizes the basis: vDZP
   Marcel Mueller, Andreas Hansen, Stefan Grimme 
   J. Chem. Phys. 158, 014103 (2023). DOI: 10.1063/5.0133026

----- AuxJ basis set information -----
Your calculation utilizes the auxiliary basis: def2/J
   H-Rn: F. Weigend, Phys. Chem. Chem. Phys. 8, 1057 (2006).
   Fr-Lr: K. Eichkorn, F. Weigend, O. Treutler, R. Ahlrichs; Theor. Chem. Acc. 97, 119 (1997).

================================================================================
                                        WARNINGS
                       Please study these warnings very carefully!
================================================================================

WARNING: Frozen-Core approximation turned on, but there are no core electrons.
  ===> : Turning off frozen-core approximation


================================================================================
                                       INPUT FILE
================================================================================
NAME = conf_029.inp
|  1> ! wb97x-3c mbis hirshfeld chelpg resp
|  2> %pal nprocs 4 end
|  3> %maxcore 4000
|  4> %method
|  5> 	   MBIS_LARGEPRINT TRUE
|  6> 	end
|  7> #conf_029
|  8> * xyzfile 0 1 conf_029.xyz
|  9> 
| 10>                          ****END OF INPUT****
================================================================================

                       ****************************
                       * Single Point Calculation *
                       ****************************

---------------------------------
CARTESIAN COORDINATES (ANGSTROEM)
---------------------------------
  C      3.671133    3.557033   -1.416932
  C      3.569769    3.782855    0.084781
  C      4.084763    2.580782    0.892024
  C      3.232003    1.369196    0.680488
  C      3.607192    0.371276   -0.209953
  C      2.792869   -0.726175   -0.406775
  F      3.201785   -1.677333   -1.265915
  C      1.584909   -0.904527    0.266857
  C      0.717362   -2.074406    0.058249
  C      0.420024   -2.514988   -1.228405
  C     -0.491839   -3.537716   -1.402581
  F     -0.824322   -3.898274   -2.651042
  C     -1.135599   -4.154517   -0.335391
  C     -2.306733   -5.089366   -0.541638
  O     -2.242053   -6.267021   -0.689404
  O     -3.499561   -4.441251   -0.536751
  C     -3.469816   -3.064137   -0.380616
  C     -3.264829   -2.256244   -1.491157
  C     -3.013519   -0.913626   -1.293646
  F     -2.780130   -0.151715   -2.377434
  C     -2.956500   -0.343508   -0.021908
  C     -2.452764    1.019064    0.198157
  C     -3.021436    1.853239    1.155495
  C     -2.463409    3.090435    1.413422
  F     -3.018986    3.883173    2.338378
  C     -1.326064    3.521936    0.738692
  F     -0.767376    4.707383    1.013962
  C     -0.774307    2.683827   -0.223277
  F      0.329775    3.070095   -0.879267
  C     -1.327592    1.450470   -0.499885
  C     -3.292151   -1.159194    1.057274
  C     -3.549788   -2.505349    0.888803
  C     -0.758697   -3.742221    0.938183
  F     -1.340377   -4.319020    2.001795
  C      0.146561   -2.722800    1.150126
  C      1.237774    0.119934    1.148998
  F      0.063914    0.036487    1.816288
  C      2.023781    1.233239    1.355749
  H      4.699773    3.353844   -1.707245
  H      3.049144    2.719438   -1.721661
  H      3.332113    4.440884   -1.950282
  H      4.158900    4.659005    0.361140
  H      2.531007    3.979957    0.350461
  H      4.080836    2.843005    1.951654
  H      5.111693    2.365890    0.593468
  H      4.535119    0.435050   -0.755729
  H      0.859675   -2.053327   -2.097789
  H     -3.249996   -2.671966   -2.486592
  H     -3.903273    1.557298    1.700146
  H     -0.854405    0.829642   -1.242995
  H     -3.275800   -0.742479    2.051395
  H     -3.751861   -3.140504    1.736715
  H      0.379984   -2.431368    2.161051
  H      1.691328    1.988595    2.050478

----------------------------
CARTESIAN COORDINATES (A.U.)
----------------------------
  NO LB      ZA    FRAG     MASS         X           Y           Z
   0 C     4.0000*   0    12.011    6.937436    6.721817   -2.677613
   1 C     4.0000*   0    12.011    6.745886    7.148560    0.160214
   2 C     4.0000*   0    12.011    7.719083    4.876970    1.685681
   3 C     4.0000*   0    12.011    6.107600    2.587405    1.285936
   4 C     4.0000*   0    12.011    6.816604    0.701611   -0.396753
   5 C     4.0000*   0    12.011    5.277757   -1.372271   -0.768693
   6 F     7.0000*   0    18.998    6.050496   -3.169699   -2.392233
   7 C     4.0000*   0    12.011    2.995044   -1.709309    0.504286
   8 C     4.0000*   0    12.011    1.355618   -3.920058    0.110074
   9 C     4.0000*   0    12.011    0.793730   -4.752638   -2.321350
  10 C     4.0000*   0    12.011   -0.929441   -6.685313   -2.650494
  11 F     7.0000*   0    18.998   -1.557743   -7.366671   -5.009743
  12 C     4.0000*   0    12.011   -2.145971   -7.850899   -0.633797
  13 C     4.0000*   0    12.011   -4.359093   -9.617507   -1.023548
  14 O     6.0000*   0    15.999   -4.236867  -11.842954   -1.302785
  15 O     6.0000*   0    15.999   -6.613212   -8.392749   -1.014313
  16 C     4.0000*   0    12.011   -6.557002   -5.790381   -0.719260
  17 C     4.0000*   0    12.011   -6.169632   -4.263683   -2.817878
  18 C     4.0000*   0    12.011   -5.694726   -1.726503   -2.444636
  19 F     7.0000*   0    18.998   -5.253685   -0.286700   -4.492698
  20 C     4.0000*   0    12.011   -5.586974   -0.649135   -0.041401
  21 C     4.0000*   0    12.011   -4.635053    1.925752    0.374462
  22 C     4.0000*   0    12.011   -5.709686    3.502113    2.183569
  23 C     4.0000*   0    12.011   -4.655168    5.840075    2.670980
  24 F     7.0000*   0    18.998   -5.705057    7.338134    4.418895
  25 C     4.0000*   0    12.011   -2.505898    6.655494    1.395926
  26 F     7.0000*   0    18.998   -1.450130    8.895664    1.916111
  27 C     4.0000*   0    12.011   -1.463228    5.071698   -0.421933
  28 F     7.0000*   0    18.998    0.623185    5.801638   -1.661573
  29 C     4.0000*   0    12.011   -2.508785    2.740992   -0.944646
  30 C     4.0000*   0    12.011   -6.221264   -2.190560    1.997958
  31 C     4.0000*   0    12.011   -6.708127   -4.734423    1.679594
  32 C     4.0000*   0    12.011   -1.433729   -7.071772    1.772910
  33 F     7.0000*   0    18.998   -2.532945   -8.161764    3.782845
  34 C     4.0000*   0    12.011    0.276961   -5.145346    2.173424
  35 C     4.0000*   0    12.011    2.339053    0.226642    2.171292
  36 F     7.0000*   0    18.998    0.120780    0.068950    3.432287
  37 C     4.0000*   0    12.011    3.824391    2.330483    2.561995
  38 H     1.0000    0     1.008    8.881284    6.337847   -3.226225
  39 H     1.0000    0     1.008    5.762047    5.138993   -3.253467
  40 H     1.0000    0     1.008    6.296781    8.392054   -3.685500
  41 H     1.0000    0     1.008    7.859182    8.804244    0.682456
  42 H     1.0000    0     1.008    4.782910    7.521029    0.662275
  43 H     1.0000    0     1.008    7.711662    5.372500    3.688092
  44 H     1.0000    0     1.008    9.659700    4.470884    1.121493
  45 H     1.0000    0     1.008    8.570132    0.822126   -1.428121
  46 H     1.0000    0     1.008    1.624551   -3.880225   -3.964247
  47 H     1.0000    0     1.008   -6.141602   -5.049284   -4.698977
  48 H     1.0000    0     1.008   -7.376118    2.942867    3.212810
  49 H     1.0000    0     1.008   -1.614592    1.567795   -2.348919
  50 H     1.0000    0     1.008   -6.190366   -1.403082    3.876575
  51 H     1.0000    0     1.008   -7.089991   -5.934692    3.281915
  52 H     1.0000    0     1.008    0.718066   -4.594619    4.083794
  53 H     1.0000    0     1.008    3.196147    3.757900    3.874841
* core charge reduced due to ECP

--------------------------------
INTERNAL COORDINATES (ANGSTROEM)
--------------------------------
 C      0   0   0     0.000000000000     0.00000000     0.00000000
 C      1   0   0     1.521976290293     0.00000000     0.00000000
 C      2   1   0     1.536827583491   112.32745639     0.00000000
 C      3   2   1     1.496625415528   111.59415087   294.84917267
 C      4   3   2     1.389062381603   121.21771633    99.04250697
 C      5   4   3     1.380673495251   120.20650456   181.16579825
 F      6   5   4     1.345375816096   118.27643115   180.79647291
 C      6   5   4     1.394544903251   122.93483903   359.28825915
 C      8   6   5     1.471315960417   122.95302697   180.05229885
 C      9   8   6     1.392121240704   120.57220541   313.53472543
 C     10   9   8     1.381232543325   119.46501879   185.86132554
 F     11  10   9     1.341343191184   118.68840133   176.22889646
 C     11  10   9     1.390598967660   122.49818862     0.05208272
 C     13  11  10     1.512625183923   121.86450605   168.65807157
 O     14  13  11     1.188650839366   125.95393819    90.74168726
 O     14  13  11     1.357540116058   112.62820368   270.39044582
 C     16  14  13     1.386256043909   117.11779983     1.41859695
 C     17  16  14     1.388528540421   119.41179069    84.17698292
 C     18  17  16     1.380141502349   118.58348063   190.76963953
 F     19  18  17     1.345204273880   117.85819613   178.18158941
 C     19  18  17     1.394848310874   122.38057827     0.10766984
 C     21  19  18     1.469278555944   121.97980718   168.67362654
 C     22  21  19     1.391305434333   121.26165091   143.23562637
 C     23  22  21     1.381511679730   120.01976673   174.99783847
 F     24  23  22     1.338896819156   119.44593340   180.09003714
 C     24  23  22     1.391045099124   121.16423577   359.42785236
 F     26  24  23     1.339100995973   121.06544409   181.68665404
 C     26  24  23     1.390053140099   118.24124133     1.09691667
 F     28  26  24     1.341089607257   119.44788950   180.64394501
 C     28  26  24     1.379784530617   121.23261394   359.48186986
 C     21  19  18     1.393786656886   117.18695137   353.96809263
 C     31  21  19     1.380902032816   121.39744881     5.83651402
 C     13  11  10     1.390695925975   116.47697906   356.40020346
 F     33  13  11     1.342504750869   118.73344518   180.76133802
 C     33  13  11     1.379721536393   122.51651734     3.68455521
 C      8   6   5     1.395778273902   115.26767657     0.92813985
 F     36   8   6     1.352843539316   118.83336633   178.39907508
 C     36   8   6     1.378405146105   123.07861188   359.75311863
 H      1   2   3     1.087964858993   110.73014050   301.90354306
 H      1   2   3     1.086873672824   110.66295536    62.63844541
 H      1   2   3     1.086549980921   110.05098541   182.05307858
 H      2   1   3     1.091370304734   109.45182104   120.33656689
 H      2   1   3     1.090165940204   109.31409447   238.32777054
 H      3   2   1     1.091600493414   108.71024813   174.29622010
 H      3   2   1     1.090825246292   109.01390719    56.25994410
 H      5   4   3     1.078418844847   120.95386723     1.36536213
 H     10   9   8     1.078078428629   121.51332571     3.70709673
 H     18  17  16     1.078858618357   121.04962396     7.61923161
 H     23  22  21     1.077897256051   121.16193764   354.38197921
 H     30  28  26     1.077750064095   118.49477431   180.98166920
 H     31  21  19     1.078051670412   118.95547674   181.14163169
 H     32  31  21     1.078522425595   120.87290436   176.37656452
 H     35  33  13     1.077676455300   119.07924626   178.45201506
 H     38  36   8     1.078765851049   119.10434248   179.76894141

---------------------------
INTERNAL COORDINATES (A.U.)
---------------------------
 C      0   0   0     0.000000000000     0.00000000     0.00000000
 C      1   0   0     2.876118370976     0.00000000     0.00000000
 C      2   1   0     2.904183247853   112.32745639     0.00000000
 C      3   2   1     2.828212160414   111.59415087   294.84917267
 C      4   3   2     2.624947484162   121.21771633    99.04250697
 C      5   4   3     2.609094786389   120.20650456   181.16579825
 F      6   5   4     2.542391839621   118.27643115   180.79647291
 C      6   5   4     2.635307948600   122.93483903   359.28825915
 C      8   6   5     2.780384221656   122.95302697   180.05229885
 C      9   8   6     2.630727890145   120.57220541   313.53472543
 C     10   9   8     2.610151234144   119.46501879   185.86132554
 F     11  10   9     2.534771282938   118.68840133   176.22889646
 C     11  10   9     2.627851210991   122.49818862     0.05208272
 C     13  11  10     2.858447340887   121.86450605   168.65807157
 O     14  13  11     2.246224555257   125.95393819    90.74168726
 O     14  13  11     2.565379035161   112.62820368   270.39044582
 C     16  14  13     2.619644274481   117.11779983     1.41859695
 C     17  16  14     2.623938670529   119.41179069    84.17698292
 C     18  17  16     2.608089465499   118.58348063   190.76963953
 F     19  18  17     2.542067671814   117.85819613   178.18158941
 C     19  18  17     2.635881305914   122.38057827     0.10766984
 C     21  19  18     2.776534085177   121.97980718   168.67362654
 C     22  21  19     2.629186239526   121.26165091   143.23562637
 C     23  22  21     2.610678725503   120.01976673   174.99783847
 F     24  23  22     2.530148309783   119.44593340   180.09003714
 C     24  23  22     2.628694277278   121.16423577   359.42785236
 F     26  24  23     2.530534148050   121.06544409   181.68665404
 C     26  24  23     2.626819746385   118.24124133     1.09691667
 F     28  26  24     2.534292078764   119.44788950   180.64394501
 C     28  26  24     2.607414886688   121.23261394   359.48186986
 C     21  19  18     2.633875070629   117.18695137   353.96809263
 C     31  21  19     2.609526659798   121.39744881     5.83651402
 C     13  11  10     2.628034435653   116.47697906   356.40020346
 F     33  13  11     2.536966312631   118.73344518   180.76133802
 C     33  13  11     2.607295844855   122.51651734     3.68455521
 C      8   6   5     2.637638681352   115.26767657     0.92813985
 F     36   8   6     2.556503791353   118.83336633   178.39907508
 C     36   8   6     2.604808227726   123.07861188   359.75311863
 H      1   2   3     2.055955626826   110.73014050   301.90354306
 H      1   2   3     2.053893583806   110.66295536    62.63844541
 H      1   2   3     2.053281894758   110.05098541   182.05307858
 H      2   1   3     2.062390986642   109.45182104   120.33656689
 H      2   1   3     2.060115067513   109.31409447   238.32777054
 H      3   2   1     2.062825980205   108.71024813   174.29622010
 H      3   2   1     2.061360975460   109.01390719    56.25994410
 H      5   4   3     2.037916274421   120.95386723     1.36536213
 H     10   9   8     2.037272980996   121.51332571     3.70709673
 H     18  17  16     2.038747325916   121.04962396     7.61923161
 H     23  22  21     2.036930614442   121.16193764   354.38197921
 H     30  28  26     2.036652461956   118.49477431   180.98166920
 H     31  21  19     2.037222415295   118.95547674   181.14163169
 H     32  31  21     2.038112013667   120.87290436   176.37656452
 H     35  33  13     2.036513361492   119.07924626   178.45201506
 H     38  36   8     2.038572021108   119.10434248   179.76894141

---------------------
BASIS SET INFORMATION
---------------------
There are 4 groups of distinct atoms

 Group   1 Type C   : 6s6p2d contracted to 2s2p1d pattern {42/42/2}
 Group   2 Type F   : 6s6p2d contracted to 2s2p1d pattern {42/42/2}
 Group   3 Type O   : 6s6p2d contracted to 2s2p1d pattern {42/42/2}
 Group   4 Type H   : 8s2p contracted to 2s1p pattern {53/2}

Atom   0C    basis set group =>   1
Atom   1C    basis set group =>   1
Atom   2C    basis set group =>   1
Atom   3C    basis set group =>   1
Atom   4C    basis set group =>   1
Atom   5C    basis set group =>   1
Atom   6F    basis set group =>   2
Atom   7C    basis set group =>   1
Atom   8C    basis set group =>   1
Atom   9C    basis set group =>   1
Atom  10C    basis set group =>   1
Atom  11F    basis set group =>   2
Atom  12C    basis set group =>   1
Atom  13C    basis set group =>   1
Atom  14O    basis set group =>   3
Atom  15O    basis set group =>   3
Atom  16C    basis set group =>   1
Atom  17C    basis set group =>   1
Atom  18C    basis set group =>   1
Atom  19F    basis set group =>   2
Atom  20C    basis set group =>   1
Atom  21C    basis set group =>   1
Atom  22C    basis set group =>   1
Atom  23C    basis set group =>   1
Atom  24F    basis set group =>   2
Atom  25C    basis set group =>   1
Atom  26F    basis set group =>   2
Atom  27C    basis set group =>   1
Atom  28F    basis set group =>   2
Atom  29C    basis set group =>   1
Atom  30C    basis set group =>   1
Atom  31C    basis set group =>   1
Atom  32C    basis set group =>   1
Atom  33F    basis set group =>   2
Atom  34C    basis set group =>   1
Atom  35C    basis set group =>   1
Atom  36F    basis set group =>   2
Atom  37C    basis set group =>   1
Atom  38H    basis set group =>   4
Atom  39H    basis set group =>   4
Atom  40H    basis set group =>   4
Atom  41H    basis set group =>   4
Atom  42H    basis set group =>   4
Atom  43H    basis set group =>   4
Atom  44H    basis set group =>   4
Atom  45H    basis set group =>   4
Atom  46H    basis set group =>   4
Atom  47H    basis set group =>   4
Atom  48H    basis set group =>   4
Atom  49H    basis set group =>   4
Atom  50H    basis set group =>   4
Atom  51H    basis set group =>   4
Atom  52H    basis set group =>   4
Atom  53H    basis set group =>   4
---------------------------------
AUXILIARY/J BASIS SET INFORMATION
---------------------------------
There are 4 groups of distinct atoms

 Group   1 Type C   : 12s5p4d2f1g contracted to 6s4p3d1f1g pattern {711111/2111/211/2/1}
 Group   2 Type F   : 12s5p4d2f1g contracted to 6s4p3d1f1g pattern {711111/2111/211/2/1}
 Group   3 Type O   : 12s5p4d2f1g contracted to 6s4p3d1f1g pattern {711111/2111/211/2/1}
 Group   4 Type H   : 5s2p1d contracted to 3s1p1d pattern {311/2/1}

Atom   0C    basis set group =>   1
Atom   1C    basis set group =>   1
Atom   2C    basis set group =>   1
Atom   3C    basis set group =>   1
Atom   4C    basis set group =>   1
Atom   5C    basis set group =>   1
Atom   6F    basis set group =>   2
Atom   7C    basis set group =>   1
Atom   8C    basis set group =>   1
Atom   9C    basis set group =>   1
Atom  10C    basis set group =>   1
Atom  11F    basis set group =>   2
Atom  12C    basis set group =>   1
Atom  13C    basis set group =>   1
Atom  14O    basis set group =>   3
Atom  15O    basis set group =>   3
Atom  16C    basis set group =>   1
Atom  17C    basis set group =>   1
Atom  18C    basis set group =>   1
Atom  19F    basis set group =>   2
Atom  20C    basis set group =>   1
Atom  21C    basis set group =>   1
Atom  22C    basis set group =>   1
Atom  23C    basis set group =>   1
Atom  24F    basis set group =>   2
Atom  25C    basis set group =>   1
Atom  26F    basis set group =>   2
Atom  27C    basis set group =>   1
Atom  28F    basis set group =>   2
Atom  29C    basis set group =>   1
Atom  30C    basis set group =>   1
Atom  31C    basis set group =>   1
Atom  32C    basis set group =>   1
Atom  33F    basis set group =>   2
Atom  34C    basis set group =>   1
Atom  35C    basis set group =>   1
Atom  36F    basis set group =>   2
Atom  37C    basis set group =>   1
Atom  38H    basis set group =>   4
Atom  39H    basis set group =>   4
Atom  40H    basis set group =>   4
Atom  41H    basis set group =>   4
Atom  42H    basis set group =>   4
Atom  43H    basis set group =>   4
Atom  44H    basis set group =>   4
Atom  45H    basis set group =>   4
Atom  46H    basis set group =>   4
Atom  47H    basis set group =>   4
Atom  48H    basis set group =>   4
Atom  49H    basis set group =>   4
Atom  50H    basis set group =>   4
Atom  51H    basis set group =>   4
Atom  52H    basis set group =>   4
Atom  53H    basis set group =>   4
-------------------------
ECP PARAMETER INFORMATION
-------------------------

 Group 1, Type C  ECP vDZP-ECP (replacing 2 core electrons, lmax=3)
 Group 2, Type F  ECP vDZP-ECP (replacing 2 core electrons, lmax=3)
 Group 3, Type O  ECP vDZP-ECP (replacing 2 core electrons, lmax=3)

Atom   0C    ECP group =>   1
Atom   1C    ECP group =>   1
Atom   2C    ECP group =>   1
Atom   3C    ECP group =>   1
Atom   4C    ECP group =>   1
Atom   5C    ECP group =>   1
Atom   6F    ECP group =>   2
Atom   7C    ECP group =>   1
Atom   8C    ECP group =>   1
Atom   9C    ECP group =>   1
Atom  10C    ECP group =>   1
Atom  11F    ECP group =>   2
Atom  12C    ECP group =>   1
Atom  13C    ECP group =>   1
Atom  14O    ECP group =>   3
Atom  15O    ECP group =>   3
Atom  16C    ECP group =>   1
Atom  17C    ECP group =>   1
Atom  18C    ECP group =>   1
Atom  19F    ECP group =>   2
Atom  20C    ECP group =>   1
Atom  21C    ECP group =>   1
Atom  22C    ECP group =>   1
Atom  23C    ECP group =>   1
Atom  24F    ECP group =>   2
Atom  25C    ECP group =>   1
Atom  26F    ECP group =>   2
Atom  27C    ECP group =>   1
Atom  28F    ECP group =>   2
Atom  29C    ECP group =>   1
Atom  30C    ECP group =>   1
Atom  31C    ECP group =>   1
Atom  32C    ECP group =>   1
Atom  33F    ECP group =>   2
Atom  34C    ECP group =>   1
Atom  35C    ECP group =>   1
Atom  36F    ECP group =>   2
Atom  37C    ECP group =>   1



           ************************************************************
           *        Program running with 4 parallel MPI-processes     *
           *              working on a common directory               *
           ************************************************************
------------------------------------------------------------------------------
                             ORCA STARTUP CALCULATIONS
                           -- RI-GTO INTEGRALS CHOSEN --
------------------------------------------------------------------------------
------------------------------------------------------------------------------
                   ___                                                        
                  /   \      - P O W E R E D   B Y -                         
                 /     \                                                     
                 |  |  |   _    _      __       _____    __    __             
                 |  |  |  | |  | |    /  \     |  _  \  |  |  /  |          
                  \  \/   | |  | |   /    \    | | | |  |  | /  /          
                 / \  \   | |__| |  /  /\  \   | |_| |  |  |/  /          
                |  |  |   |  __  | /  /__\  \  |    /   |      \           
                |  |  |   | |  | | |   __   |  |    \   |  |\   \          
                \     /   | |  | | |  |  |  |  | |\  \  |  | \   \       
                 \___/    |_|  |_| |__|  |__|  |_| \__\ |__|  \__/        
                                                                              
                      - O R C A' S   B I G   F R I E N D -                    
                                      &                                       
                       - I N T E G R A L  F E E D E R -                       
                                                                              
 v1 FN, 2020, v2 2021, v3 2022-2024                                           
------------------------------------------------------------------------------


----------------------
SHARK INTEGRAL PACKAGE
----------------------

Number of atoms                             ...     54
Number of basis functions                   ...    574
Number of shells                            ...    238
Maximum angular momentum                    ...      2
Integral batch strategy                     ... SHARK/LIBINT Hybrid
RI-J (if used) integral strategy            ... SPLIT-RIJ (Revised 2003 algorithm where possible)
Printlevel                                  ...      1
Contraction scheme used                     ... SEGMENTED contraction
Prescreening option                         ... SCHWARTZ
   Thresh                                   ... 1.000e-10
   Tcut                                     ... 1.000e-11
   Tpresel                                  ... 1.000e-11 
Coulomb Range Separation                    ... NOT USED
Exchange Range Separation                   ... Long Range
   Mu parameter                             ... 3.000e-01
   Scaling (regular/separated)              ... 1.670e-01 8.330e-01
Robust (split-)RI terms used:
  metric    (central integrals)             ... YES
  density   (r.h.s.  integrals)             ... YES
  potential (l.h.s.  integrals)             ... YES
Multipole approximations                    ... NOT USED
Finite Nucleus Model                        ... NOT USED
CABS basis                                  ... NOT available
Auxiliary Coulomb fitting basis             ... AVAILABLE
   # of basis functions in Aux-J            ...   2038
   # of shells in Aux-J                     ...    650
   Maximum angular momentum in Aux-J        ...      4
Auxiliary J/K fitting basis                 ... NOT available
Auxiliary Correlation fitting basis         ... NOT available
Auxiliary 'external' fitting basis          ... NOT available

done (  0.0 sec) Dimension = 238
   => SHARK Basis and OBASIS are compatible. Storing Pre-screening
Shell pair information
Shell pair cut-off parameter TPreSel        ...   1.0e-11
Total number of shell pairs                 ...     28441
Shell pairs after pre-screening             ...     25560
Total number of primitive shell pairs       ...    240572
Primitive shell pairs kept                  ...    144445
          la=0 lb=0:   5464 shell pairs
          la=1 lb=0:   9017 shell pairs
          la=1 lb=1:   3770 shell pairs
          la=2 lb=0:   3678 shell pairs
          la=2 lb=1:   3001 shell pairs
          la=2 lb=2:    630 shell pairs

Checking whether 4 symmetric matrices of dimension 574 fit in memory
:Max Core in MB      =   4000.00
 MB in use           =     50.10
 MB left             =   3949.90
 MB needed           =      5.04
 Data fit in memory  = YES
done (  0.6 sec)
Calculating Nuclear repulsion               ... done (  0.0 sec) ENN=   2310.240690765379 Eh

Diagonalization of the overlap matrix:
Smallest eigenvalue                        ... 2.084e-04
Time for diagonalization                   ...    0.094 sec
Threshold for overlap eigenvalues          ... 1.000e-07
Number of eigenvalues below threshold      ... 0
Time for construction of square roots      ...    0.042 sec
Total time needed                          ...    0.159 sec

-------------------
DFT GRID GENERATION
-------------------

General Integration Accuracy     IntAcc      ... 4.388
Radial Grid Type                 RadialGrid  ... OptM3 with GC (2021)
Angular Grid (max. ang.)         AngularGrid ... 4 (Lebedev-302)
Angular grid pruning method      GridPruning ... 4 (adaptive)
Weight generation scheme         WeightScheme... mBecke (2022)
Basis function cutoff            BFCut       ... 1.0000e-10
Integration weight cutoff        WCut        ... 1.0000e-14
Partially contracted basis set               ... off
Rotationally invariant grid construction     ... off
Angular grids for H and He will be reduced by one unit

Total number of grid points                  ...   276866
Total number of batches                      ...     4352
Average number of points per batch           ...       63
Average number of grid points per atom       ...     5127

--------------------
COSX GRID GENERATION
--------------------

GRIDX 1
-------
General Integration Accuracy     IntAcc      ... 3.816
Radial Grid Type                 RadialGrid  ... OptM3 with GC (2021)
Angular Grid (max. ang.)         AngularGrid ... 1 (Lebedev-50)
Angular grid pruning method      GridPruning ... 4 (adaptive)
Weight generation scheme         WeightScheme... mBecke (2022)
Basis function cutoff            BFCut       ... 1.0000e-10
Integration weight cutoff        WCut        ... 1.0000e-14
Partially contracted basis set               ... on
Rotationally invariant grid construction     ... off
Angular grids for H and He will be reduced by one unit

Total number of grid points                  ...    34990
Total number of batches                      ...      302
Average number of points per batch           ...      115
Average number of grid points per atom       ...      648
UseSFitting                                  ... on

GRIDX 2
-------
General Integration Accuracy     IntAcc      ... 4.020
Radial Grid Type                 RadialGrid  ... OptM3 with GC (2021)
Angular Grid (max. ang.)         AngularGrid ... 2 (Lebedev-110)
Angular grid pruning method      GridPruning ... 4 (adaptive)
Weight generation scheme         WeightScheme... mBecke (2022)
Basis function cutoff            BFCut       ... 1.0000e-10
Integration weight cutoff        WCut        ... 1.0000e-14
Partially contracted basis set               ... on
Rotationally invariant grid construction     ... off
Angular grids for H and He will be reduced by one unit

Total number of grid points                  ...    77624
Total number of batches                      ...      635
Average number of points per batch           ...      122
Average number of grid points per atom       ...     1437
UseSFitting                                  ... on

GRIDX 3
-------
General Integration Accuracy     IntAcc      ... 4.338
Radial Grid Type                 RadialGrid  ... OptM3 with GC (2021)
Angular Grid (max. ang.)         AngularGrid ... 3 (Lebedev-194)
Angular grid pruning method      GridPruning ... 4 (adaptive)
Weight generation scheme         WeightScheme... mBecke (2022)
Basis function cutoff            BFCut       ... 1.0000e-10
Integration weight cutoff        WCut        ... 1.0000e-14
Partially contracted basis set               ... on
Rotationally invariant grid construction     ... off
Angular grids for H and He will be reduced by one unit

Total number of grid points                  ...   169829
Total number of batches                      ...     1353
Average number of points per batch           ...      125
Average number of grid points per atom       ...     3145
UseSFitting                                  ... on
Grids setup in  11.7 sec
Initializing property integral containers    ... done (  0.0 sec)

SHARK setup successfully completed in  16.4 seconds

Maximum memory used throughout the entire STARTUP-calculation: 118.9 MB


           ************************************************************
           *        Program running with 4 parallel MPI-processes     *
           *              working on a common directory               *
           ************************************************************
-------------------------------------------------------------------------------
                                 ORCA GUESS
                   Start orbitals & Density for SCF / CASSCF
-------------------------------------------------------------------------------

------------
SCF SETTINGS
------------
Hamiltonian:
 Density Functional     Method          .... DFT(GTOs)
 Exchange Functional    Exchange        .... WB97X-V
 Correlation Functional Correlation     .... WB97X-V
 Gradients option       PostSCFGGA      .... off
 Hybrid DFT is turned on
   Fraction HF Exchange ScalHFX         ....  0.167000
   Scaling of DF-GGA-X  ScalDFX         ....  0.000000
   Scaling of DF-GGA-C  ScalDFC         ....  1.000000
   Scaling of DF-LDA-C  ScalLDAC        ....  1.000000
   Perturbative correction              ....  0.000000
 Long-range corrected/Screened/Range-Separated Hybrid DFT is turned on
   Amount of maximum screened exact exchange              ....  0.833000
   Range separation parameter mu (erf(mu*r12)/r12)        ....  0.300000
   NL short-range parameter             ....  6.000000
   NL long-range parameter              ....  0.010000
 RI-approximation to the Coulomb term is turned on
   Number of AuxJ basis functions       .... 2038
   RIJ-COSX (HFX calculated with COS-X)).... on


General Settings:
 Integral files         IntName         .... conf_029
 Hartree-Fock type      HFTyp           .... RHF
 Total Charge           Charge          ....    0
 Multiplicity           Mult            ....    1
 Number of Electrons    NEL             ....  196
 Basis Dimension        Dim             ....  574
 Nuclear Repulsion      ENuc            ....   2310.2406907654 Eh

Convergence Acceleration:
 AO-DIIS                CNVDIIS         .... on
   Start iteration      DIISMaxIt       ....    12
   Startup error        DIISStart       ....  0.200000
   # of expansion vecs  DIISMaxEq       ....     5
   Bias factor          DIISBfac        ....   1.050
   Max. coefficient     DIISMaxC        ....  10.000
 MO-DIIS                CNVKDIIS        .... off
 Trust-Rad. Augm. Hess. CNVTRAH         .... auto
   Auto Start mean grad. ratio tolernc. ....  1.125000
   Auto Start start iteration           ....    50
   Auto Start num. interpolation iter.  ....    10
   Max. Number of Micro iterations      ....    24
   Max. Number of Macro iterations      .... Maxiter - #DIIS iter
   Number of Davidson start vectors     ....     2
   Converg. threshold    (grad. norm)   ....   5.000e-05
   Grad. Scal. Fac. for Micro threshold ....   0.100
   Minimum threshold for Micro iter.    ....   1.000e-02
   NR start threshold (gradient norm)   ....   1.000e-04
   Initial trust radius                 ....   0.400
   Minimum AH scaling param. (alpha)    ....   1.000
   Maximum AH scaling param. (alpha)    .... 1000.000
   Quad. conv. algorithm                .... NR
   White noise on init. David. guess    .... on
   Maximum white noise                  ....   0.010
   Pseudo random numbers                .... off
   Inactive MOs                         .... canonical
   Orbital update algorithm             .... Taylor
   Preconditioner                       .... Diag
   Full preconditioner red. dimension   ....   250
 SOSCF                 CNVSOSCF           .... on
   Start iteration     SOSCFMaxIt         ....   150
   Startup grad/error  SOSCFStart         ....  0.003300
   Hessian update      SOSCFHessUp        .... L-BFGS
   Autom. constraints  SOSCFAutoConstrain .... off
 Level Shifting         CNVShift        .... on
   Level shift para.    LevelShift      ....    0.2500
   Turn off err/grad.   ShiftErr        ....    0.0010
 Zerner damping         CNVZerner       .... off
 Static damping         CNVDamp         .... on
   Fraction old density DampFac         ....    0.7000
   Max. Damping (<1)    DampMax         ....    0.9800
   Min. Damping (>=0)   DampMin         ....    0.0000
   Turn off err/grad.   DampErr         ....    0.1000

SCF Procedure:
 Maximum # iterations   MaxIter         ....   125
 SCF integral mode      SCFMode         .... Direct
   Integral package                     .... SHARK and LIBINT hybrid scheme
 Reset frequency        DirectResetFreq ....    20
 Integral Threshold     Thresh          ....  1.000e-10 Eh
 Primitive CutOff       TCut            ....  1.000e-11 Eh

Convergence Tolerance:
 Convergence Check Mode ConvCheckMode   .... Total+1el-Energy
 Convergence forced     ConvForced      .... 0
 Energy Change          TolE            ....  1.000e-06 Eh
 1-El. energy change                    ....  1.000e-03 Eh
 Orbital Gradient       TolG            ....  5.000e-05
 Orbital Rotation angle TolX            ....  5.000e-05
 DIIS Error             TolErr          ....  1.000e-06

------------------------------
INITIAL GUESS: MODEL POTENTIAL
------------------------------
Loading Hartree-Fock densities                     ... done
Atomic calculation to generate a density for atom 0 (C  with ECP)
  Multiplicity assumed   :    1
  Atomic configuration   : 1s2 2s2 2p2 
  Number of open shells  : 1
  Command: /opt/apps/pkg/applications/orca/orca_6_1_0_linux_x86-64_shared_openmpi418/orca conf_029_atom6.inp "" > conf_029_atom6.out
Returned from the atomic calculation with res=0
Atomic calculation to generate a density for atom 6 (F  with ECP)
  Multiplicity assumed   :    2
  Atomic configuration   : 1s2 2s2 2p5 
  Number of open shells  : 1
  Command: /opt/apps/pkg/applications/orca/orca_6_1_0_linux_x86-64_shared_openmpi418/orca conf_029_atom9.inp "" > conf_029_atom9.out
Returned from the atomic calculation with res=0
Atomic calculation to generate a density for atom 14 (O  with ECP)
  Multiplicity assumed   :    3
  Atomic configuration   : 1s2 2s2 2p4 
  Number of open shells  : 1
  Command: /opt/apps/pkg/applications/orca/orca_6_1_0_linux_x86-64_shared_openmpi418/orca conf_029_atom8.inp "" > conf_029_atom8.out
Returned from the atomic calculation with res=0
Calculating cut-offs                               ... done
Initializing the effective Hamiltonian             ... done
Setting up the integral package (SHARK)            ... done
done (   2.2 sec)
done (   1.4 sec)
Mapping shells                                     ... done
Starting the XC term evaluation                    ... done (   1.7 sec)
  promolecular density results
     # of electrons  =    271.986815261
     EX              =   -168.153725762
     EC              =    -11.759274809
     EX+EC           =   -179.913000571
Transforming the Hamiltonian                       ... done (   0.1 sec)
done (   0.1 sec)
Back transforming the eigenvectors                 ... done (   0.1 sec)
done
                      ------------------
                      INITIAL GUESS DONE (   7.5 sec)
                      ------------------
             **** ENERGY FILE WAS UPDATED (conf_029.en.tmp) ****
Finished Guess after   9.3 sec
Maximum memory used throughout the entire GUESS-calculation: 74.5 MB


           ************************************************************
           *        Program running with 4 parallel MPI-processes     *
           *              working on a common directory               *
           ************************************************************

-------------------------------------------------------------------------------------------
                                      ORCA LEAN-SCF
                              memory conserving SCF solver
-------------------------------------------------------------------------------------------

----------------------------------------D-I-I-S--------------------------------------------
Iteration    Energy (Eh)           Delta-E    RMSDP     MaxDP     DIISErr   Damp  Time(sec)
-------------------------------------------------------------------------------------------
               ***  Starting incremental Fock matrix formation  ***
    1    -394.3416901423652234     0.00e+00  5.99e-03  9.76e-02  2.06e-01  0.700  99.7
    2    -394.9202864339436019    -5.79e-01  4.34e-03  6.91e-02  1.13e-01  0.700  35.6
                               ***Turning on AO-DIIS***
    3    -395.1873431348321901    -2.67e-01  2.53e-03  3.63e-02  5.85e-02  0.700  42.2
    4    -395.3461258772199471    -1.59e-01  5.59e-03  7.64e-02  3.45e-02  0.000  42.2
    5    -395.6927583225951821    -3.47e-01  4.59e-04  6.99e-03  6.91e-03  0.000  45.3
    6    -395.6946061013118197    -1.85e-03  2.41e-04  4.70e-03  3.50e-03  0.000  37.7
                              *** Initializing SOSCF ***
---------------------------------------S-O-S-C-F--------------------------------------
Iteration    Energy (Eh)           Delta-E    RMSDP     MaxDP     MaxGrad    Time(sec)
--------------------------------------------------------------------------------------
    7    -395.6951196808795430    -5.14e-04  1.26e-04  3.16e-03  2.84e-03    33.4
               *** Restarting incremental Fock matrix formation ***
    8    -395.6951976799541626    -7.80e-05  7.92e-05  1.60e-03  1.02e-03   102.1
    9    -395.6952471766180679    -4.95e-05  9.30e-05  2.48e-03  5.41e-04    62.9
   10    -395.6952594728145414    -1.23e-05  2.94e-05  1.42e-03  6.38e-04    54.5
   11    -395.6952650093307966    -5.54e-06  1.12e-05  2.90e-04  9.54e-05    51.1
   12    -395.6952652386762566    -2.29e-07  5.04e-06  9.36e-05  3.07e-05    43.3
                 **** Energy Check signals convergence ****

               *****************************************************
               *                     SUCCESS                       *
               *           SCF CONVERGED AFTER  12 CYCLES          *
               *****************************************************

 done (  187.437 sec)
Old exchange energy                            :    -40.327927313 Eh
New exchange energy                            :    -40.328003172 Eh
Exchange energy change after final integration :     -0.000075859 Eh
Total energy after final integration           :   -395.695341340 Eh
             **** ENERGY FILE WAS UPDATED (conf_029.en.tmp) ****

----------------
TOTAL SCF ENERGY
----------------

Total Energy       :       -395.69534134041857 Eh          -10767.41764 eV

Components:
Nuclear Repulsion  :       2310.24069076537899 Eh           62864.84518 eV
Electronic Energy  :      -2705.93595624665750 Eh          -73632.26076 eV
One Electron Energy:      -5235.60852264600726 Eh         -142468.15084 eV
Two Electron Energy:       2529.67256639934976 Eh           68835.89008 eV

Virial components:
Potential Energy   :       -709.31440944652741 Eh          -19301.42635 eV
Kinetic Energy     :        313.61906810610878 Eh            8534.00870 eV
Virial Ratio       :          2.26170689725581

DFT components:
N(Alpha)           :       97.999496423645 electrons
N(Beta)            :       97.999496423645 electrons
N(Total)           :      195.998992847289 electrons
E(X)               :      -51.263862408541 Eh       
E(C)               :       -7.939749436677 Eh       
E(XC)              :      -59.203611845218 Eh       

---------------
SCF CONVERGENCE
---------------

  Last Energy change         ...    2.2935e-07  Tolerance :   1.0000e-06
  Last MAX-Density change    ...    9.3558e-05  Tolerance :   1.0000e-05
  Last RMS-Density change    ...    5.0355e-06  Tolerance :   1.0000e-06
  Last DIIS Error            ...    2.8443e-03  Tolerance :   1.0000e-06
  Last Orbital Gradient      ...    3.0709e-05  Tolerance :   5.0000e-05
  Last Orbital Rotation      ...    1.0869e-04  Tolerance :   5.0000e-05


----------------
ORBITAL ENERGIES
----------------

  NO   OCC          E(Eh)            E(eV) 
   0   2.0000      -1.397782       -38.0356 
   1   2.0000      -1.388489       -37.7827 
   2   2.0000      -1.387621       -37.7591 
   3   2.0000      -1.386407       -37.7260 
   4   2.0000      -1.382135       -37.6098 
   5   2.0000      -1.380936       -37.5772 
   6   2.0000      -1.379636       -37.5418 
   7   2.0000      -1.377403       -37.4810 
   8   2.0000      -1.274937       -34.6928 
   9   2.0000      -1.189162       -32.3587 
  10   2.0000      -1.063393       -28.9364 
  11   2.0000      -1.061749       -28.8916 
  12   2.0000      -1.043611       -28.3981 
  13   2.0000      -1.038345       -28.2548 
  14   2.0000      -0.985121       -26.8065 
  15   2.0000      -0.964473       -26.2446 
  16   2.0000      -0.951715       -25.8975 
  17   2.0000      -0.931787       -25.3552 
  18   2.0000      -0.927747       -25.2453 
  19   2.0000      -0.924663       -25.1614 
  20   2.0000      -0.918303       -24.9883 
  21   2.0000      -0.911607       -24.8061 
  22   2.0000      -0.905317       -24.6349 
  23   2.0000      -0.853880       -23.2353 
  24   2.0000      -0.828350       -22.5405 
  25   2.0000      -0.809943       -22.0397 
  26   2.0000      -0.806652       -21.9501 
  27   2.0000      -0.799293       -21.7499 
  28   2.0000      -0.786811       -21.4102 
  29   2.0000      -0.780250       -21.2317 
  30   2.0000      -0.777557       -21.1584 
  31   2.0000      -0.767527       -20.8855 
  32   2.0000      -0.744822       -20.2676 
  33   2.0000      -0.731277       -19.8991 
  34   2.0000      -0.723804       -19.6957 
  35   2.0000      -0.720052       -19.5936 
  36   2.0000      -0.704216       -19.1627 
  37   2.0000      -0.699007       -19.0210 
  38   2.0000      -0.694875       -18.9085 
  39   2.0000      -0.693369       -18.8675 
  40   2.0000      -0.681029       -18.5317 
  41   2.0000      -0.673768       -18.3342 
  42   2.0000      -0.666144       -18.1267 
  43   2.0000      -0.654221       -17.8023 
  44   2.0000      -0.652772       -17.7628 
  45   2.0000      -0.648925       -17.6581 
  46   2.0000      -0.644302       -17.5324 
  47   2.0000      -0.642524       -17.4840 
  48   2.0000      -0.639880       -17.4120 
  49   2.0000      -0.637077       -17.3357 
  50   2.0000      -0.634398       -17.2628 
  51   2.0000      -0.622712       -16.9449 
  52   2.0000      -0.620443       -16.8831 
  53   2.0000      -0.619071       -16.8458 
  54   2.0000      -0.618250       -16.8234 
  55   2.0000      -0.614642       -16.7253 
  56   2.0000      -0.606575       -16.5057 
  57   2.0000      -0.605096       -16.4655 
  58   2.0000      -0.602993       -16.4083 
  59   2.0000      -0.599379       -16.3099 
  60   2.0000      -0.593877       -16.1602 
  61   2.0000      -0.590289       -16.0626 
  62   2.0000      -0.587067       -15.9749 
  63   2.0000      -0.581538       -15.8245 
  64   2.0000      -0.577912       -15.7258 
  65   2.0000      -0.576307       -15.6821 
  66   2.0000      -0.566472       -15.4145 
  67   2.0000      -0.559986       -15.2380 
  68   2.0000      -0.553516       -15.0619 
  69   2.0000      -0.546068       -14.8593 
  70   2.0000      -0.542502       -14.7622 
  71   2.0000      -0.540303       -14.7024 
  72   2.0000      -0.539395       -14.6777 
  73   2.0000      -0.524089       -14.2612 
  74   2.0000      -0.523082       -14.2338 
  75   2.0000      -0.522421       -14.2158 
  76   2.0000      -0.517118       -14.0715 
  77   2.0000      -0.511909       -13.9298 
  78   2.0000      -0.509788       -13.8720 
  79   2.0000      -0.509215       -13.8564 
  80   2.0000      -0.504464       -13.7272 
  81   2.0000      -0.496382       -13.5072 
  82   2.0000      -0.495138       -13.4734 
  83   2.0000      -0.491737       -13.3808 
  84   2.0000      -0.485215       -13.2034 
  85   2.0000      -0.461438       -12.5564 
  86   2.0000      -0.457422       -12.4471 
  87   2.0000      -0.452512       -12.3135 
  88   2.0000      -0.450535       -12.2597 
  89   2.0000      -0.428188       -11.6516 
  90   2.0000      -0.413052       -11.2397 
  91   2.0000      -0.393006       -10.6942 
  92   2.0000      -0.390500       -10.6260 
  93   2.0000      -0.378386       -10.2964 
  94   2.0000      -0.368934       -10.0392 
  95   2.0000      -0.366168        -9.9639 
  96   2.0000      -0.356142        -9.6911 
  97   2.0000      -0.341865        -9.3026 
  98   0.0000      -0.006574        -0.1789 
  99   0.0000       0.010267         0.2794 
 100   0.0000       0.022352         0.6082 
 101   0.0000       0.038134         1.0377 
 102   0.0000       0.047796         1.3006 
 103   0.0000       0.051371         1.3979 
 104   0.0000       0.055926         1.5218 
 105   0.0000       0.066632         1.8132 
 106   0.0000       0.067521         1.8373 
 107   0.0000       0.073597         2.0027 
 108   0.0000       0.079572         2.1653 
*Only the first 10 virtual orbitals were printed.

                    ********************************
                    * MULLIKEN POPULATION ANALYSIS *
                    ********************************

-----------------------
MULLIKEN ATOMIC CHARGES
-----------------------
   0 C :   -0.054243
   1 C :   -0.056120
   2 C :   -0.047770
   3 C :   -0.032136
   4 C :    0.029626
   5 C :    0.197678
   6 F :   -0.226452
   7 C :   -0.122460
   8 C :   -0.090835
   9 C :    0.065648
  10 C :    0.226882
  11 F :   -0.218045
  12 C :   -0.230666
  13 C :    0.309015
  14 O :   -0.233751
  15 O :   -0.230258
  16 C :    0.030575
  17 C :    0.054118
  18 C :    0.195316
  19 F :   -0.226108
  20 C :   -0.100726
  21 C :   -0.045223
  22 C :    0.033679
  23 C :    0.181477
  24 F :   -0.214852
  25 C :    0.184625
  26 F :   -0.213107
  27 C :    0.164238
  28 F :   -0.223460
  29 C :    0.044607
  30 C :    0.058509
  31 C :    0.038887
  32 C :    0.231121
  33 F :   -0.219696
  34 C :    0.080062
  35 C :    0.174141
  36 F :   -0.230760
  37 C :    0.047650
  38 H :    0.025067
  39 H :    0.038297
  40 H :    0.038446
  41 H :    0.036914
  42 H :    0.037696
  43 H :    0.050294
  44 H :    0.038483
  45 H :    0.035358
  46 H :    0.050785
  47 H :    0.060064
  48 H :    0.045131
  49 H :    0.040805
  50 H :    0.037574
  51 H :    0.049027
  52 H :    0.051469
  53 H :    0.033407
Sum of atomic charges:    0.0000000

--------------------------------
MULLIKEN REDUCED ORBITAL CHARGES
--------------------------------
  0 C s       :     0.933793  s :     0.933793
      pz      :     0.955110  p :     3.046647
      px      :     1.035350
      py      :     1.056188
      dz2     :     0.017096  d :     0.073803
      dxz     :     0.014429
      dyz     :     0.018474
      dx2y2   :     0.011937
      dxy     :     0.011868

  1 C s       :     0.995695  s :     0.995695
      pz      :     0.941793  p :     2.959484
      px      :     1.045085
      py      :     0.972605
      dz2     :     0.026618  d :     0.100941
      dxz     :     0.016915
      dyz     :     0.022650
      dx2y2   :     0.017245
      dxy     :     0.017513

  2 C s       :     0.965007  s :     0.965007
      pz      :     1.042840  p :     2.982717
      px      :     1.013555
      py      :     0.926322
      dz2     :     0.026981  d :     0.100046
      dxz     :     0.008776
      dyz     :     0.017017
      dx2y2   :     0.025436
      dxy     :     0.021836

  3 C s       :     1.043679  s :     1.043679
      pz      :     0.941971  p :     2.860247
      px      :     0.959774
      py      :     0.958502
      dz2     :     0.026006  d :     0.128210
      dxz     :     0.020398
      dyz     :     0.021612
      dx2y2   :     0.031156
      dxy     :     0.029036

  4 C s       :     0.962055  s :     0.962055
      pz      :     0.981007  p :     2.921044
      px      :     0.997233
      py      :     0.942805
      dz2     :     0.013666  d :     0.087275
      dxz     :     0.017680
      dyz     :     0.014217
      dx2y2   :     0.022888
      dxy     :     0.018825

  5 C s       :     1.059131  s :     1.059131
      pz      :     0.829332  p :     2.558141
      px      :     0.949503
      py      :     0.779307
      dz2     :     0.035736  d :     0.185050
      dxz     :     0.031004
      dyz     :     0.034510
      dx2y2   :     0.044772
      dxy     :     0.039030

  6 F s       :     1.885765  s :     1.885765
      pz      :     1.728523  p :     5.317070
      px      :     1.894740
      py      :     1.693807
      dz2     :     0.005198  d :     0.023618
      dxz     :     0.003135
      dyz     :     0.007146
      dx2y2   :     0.003776
      dxy     :     0.004362

  7 C s       :     0.985330  s :     0.985330
      pz      :     1.012470  p :     3.026344
      px      :     0.992728
      py      :     1.021147
      dz2     :     0.021415  d :     0.110787
      dxz     :     0.016582
      dyz     :     0.019530
      dx2y2   :     0.029487
      dxy     :     0.023773

  8 C s       :     1.008122  s :     1.008122
      pz      :     1.017604  p :     2.952928
      px      :     0.956061
      py      :     0.979263
      dz2     :     0.030146  d :     0.129785
      dxz     :     0.030855
      dyz     :     0.032877
      dx2y2   :     0.020605
      dxy     :     0.015302

  9 C s       :     0.968982  s :     0.968982
      pz      :     0.966463  p :     2.878543
      px      :     0.972340
      py      :     0.939741
      dz2     :     0.021003  d :     0.086826
      dxz     :     0.018234
      dyz     :     0.020242
      dx2y2   :     0.016781
      dxy     :     0.010566

 10 C s       :     1.052481  s :     1.052481
      pz      :     0.698115  p :     2.532668
      px      :     0.936821
      py      :     0.897732
      dz2     :     0.046975  d :     0.187969
      dxz     :     0.046932
      dyz     :     0.048112
      dx2y2   :     0.029881
      dxy     :     0.016069

 11 F s       :     1.884302  s :     1.884302
      pz      :     1.515383  p :     5.309954
      px      :     1.898252
      py      :     1.896320
      dz2     :     0.008995  d :     0.023788
      dxz     :     0.006275
      dyz     :     0.006616
      dx2y2   :     0.001013
      dxy     :     0.000890

 12 C s       :     1.026739  s :     1.026739
      pz      :     1.051101  p :     3.102714
      px      :     0.986772
      py      :     1.064841
      dz2     :     0.020310  d :     0.101213
      dxz     :     0.024763
      dyz     :     0.025086
      dx2y2   :     0.015065
      dxy     :     0.015988

 13 C s       :     1.075133  s :     1.075133
      pz      :     0.711754  p :     2.336883
      px      :     0.764171
      py      :     0.860958
      dz2     :     0.011703  d :     0.278969
      dxz     :     0.029960
      dyz     :     0.054654
      dx2y2   :     0.065229
      dxy     :     0.117424

 14 O s       :     1.762911  s :     1.762911
      pz      :     1.362537  p :     4.431597
      px      :     1.780988
      py      :     1.288072
      dz2     :     0.003703  d :     0.039243
      dxz     :     0.000186
      dyz     :     0.015321
      dx2y2   :     0.010817
      dxy     :     0.009215

 15 O s       :     1.697635  s :     1.697635
      pz      :     1.762302  p :     4.489539
      px      :     1.463699
      py      :     1.263539
      dz2     :     0.005217  d :     0.043083
      dxz     :     0.006059
      dyz     :     0.005444
      dx2y2   :     0.014962
      dxy     :     0.011402

 16 C s       :     1.050310  s :     1.050310
      pz      :     1.042646  p :     2.744697
      px      :     0.994740
      py      :     0.707310
      dz2     :     0.035261  d :     0.174418
      dxz     :     0.026216
      dyz     :     0.056322
      dx2y2   :     0.025816
      dxy     :     0.030803

 17 C s       :     0.986178  s :     0.986178
      pz      :     0.986152  p :     2.876037
      px      :     0.980107
      py      :     0.909778
      dz2     :     0.020522  d :     0.083667
      dxz     :     0.010312
      dyz     :     0.022287
      dx2y2   :     0.011774
      dxy     :     0.018773

 18 C s       :     1.051394  s :     1.051394
      pz      :     0.774936  p :     2.569804
      px      :     0.942076
      py      :     0.852792
      dz2     :     0.046468  d :     0.183486
      dxz     :     0.034651
      dyz     :     0.052250
      dx2y2   :     0.021099
      dxy     :     0.029019

 19 F s       :     1.885870  s :     1.885870
      pz      :     1.625403  p :     5.316575
      px      :     1.899529
      py      :     1.791643
      dz2     :     0.006119  d :     0.023663
      dxz     :     0.004887
      dyz     :     0.007849
      dx2y2   :     0.002305
      dxy     :     0.002502

 20 C s       :     0.991737  s :     0.991737
      pz      :     0.987707  p :     2.990627
      px      :     1.007764
      py      :     0.995156
      dz2     :     0.026841  d :     0.118362
      dxz     :     0.023268
      dyz     :     0.032674
      dx2y2   :     0.016532
      dxy     :     0.019048

 21 C s       :     0.996483  s :     0.996483
      pz      :     0.957510  p :     2.920814
      px      :     0.970552
      py      :     0.992753
      dz2     :     0.027159  d :     0.127925
      dxz     :     0.017279
      dyz     :     0.022930
      dx2y2   :     0.030839
      dxy     :     0.029718

 22 C s       :     0.968490  s :     0.968490
      pz      :     0.961820  p :     2.909189
      px      :     1.007580
      py      :     0.939790
      dz2     :     0.015275  d :     0.088642
      dxz     :     0.015760
      dyz     :     0.017234
      dx2y2   :     0.021935
      dxy     :     0.018438

 23 C s       :     1.057049  s :     1.057049
      pz      :     0.807621  p :     2.578408
      px      :     0.906651
      py      :     0.864136
      dz2     :     0.038895  d :     0.183067
      dxz     :     0.028801
      dyz     :     0.037863
      dx2y2   :     0.043439
      dxy     :     0.034068

 24 F s       :     1.887833  s :     1.887833
      pz      :     1.686690  p :     5.303047
      px      :     1.848282
      py      :     1.768075
      dz2     :     0.005897  d :     0.023972
      dxz     :     0.004507
      dyz     :     0.006415
      dx2y2   :     0.002920
      dxy     :     0.004233

 25 C s       :     1.043398  s :     1.043398
      pz      :     0.955174  p :     2.597877
      px      :     0.926160
      py      :     0.716543
      dz2     :     0.029575  d :     0.174101
      dxz     :     0.019756
      dyz     :     0.040223
      dx2y2   :     0.043740
      dxy     :     0.040807

 26 F s       :     1.889176  s :     1.889176
      pz      :     1.910280  p :     5.299625
      px      :     1.848909
      py      :     1.540437
      dz2     :     0.002952  d :     0.024306
      dxz     :     0.001694
      dyz     :     0.005478
      dx2y2   :     0.007098
      dxy     :     0.007083

 27 C s       :     1.052504  s :     1.052504
      pz      :     0.865660  p :     2.601198
      px      :     0.784951
      py      :     0.950587
      dz2     :     0.037989  d :     0.182060
      dxz     :     0.030146
      dyz     :     0.031024
      dx2y2   :     0.039570
      dxy     :     0.043331

 28 F s       :     1.886700  s :     1.886700
      pz      :     1.808010  p :     5.312924
      px      :     1.600405
      py      :     1.904509
      dz2     :     0.003752  d :     0.023836
      dxz     :     0.007047
      dyz     :     0.002414
      dx2y2   :     0.005894
      dxy     :     0.004729

 29 C s       :     0.977847  s :     0.977847
      pz      :     1.012052  p :     2.888824
      px      :     0.943018
      py      :     0.933754
      dz2     :     0.012898  d :     0.088722
      dxz     :     0.015436
      dyz     :     0.018084
      dx2y2   :     0.021897
      dxy     :     0.020407

 30 C s       :     0.981639  s :     0.981639
      pz      :     0.981030  p :     2.862893
      px      :     0.923763
      py      :     0.958100
      dz2     :     0.022379  d :     0.096958
      dxz     :     0.010269
      dyz     :     0.030074
      dx2y2   :     0.013798
      dxy     :     0.020437

 31 C s       :     0.988520  s :     0.988520
      pz      :     0.955546  p :     2.882605
      px      :     0.979021
      py      :     0.948039
      dz2     :     0.017840  d :     0.089987
      dxz     :     0.013499
      dyz     :     0.031743
      dx2y2   :     0.010565
      dxy     :     0.016341

 32 C s       :     1.050083  s :     1.050083
      pz      :     0.769589  p :     2.531009
      px      :     0.903735
      py      :     0.857685
      dz2     :     0.046605  d :     0.187787
      dxz     :     0.043138
      dyz     :     0.045753
      dx2y2   :     0.032747
      dxy     :     0.019544

 33 F s       :     1.883922  s :     1.883922
      pz      :     1.635493  p :     5.312050
      px      :     1.836833
      py      :     1.839724
      dz2     :     0.005977  d :     0.023724
      dxz     :     0.006228
      dyz     :     0.006429
      dx2y2   :     0.002666
      dxy     :     0.002424

 34 C s       :     0.969501  s :     0.969501
      pz      :     0.986407  p :     2.863378
      px      :     0.942676
      py      :     0.934295
      dz2     :     0.024608  d :     0.087059
      dxz     :     0.014450
      dyz     :     0.016975
      dx2y2   :     0.019163
      dxy     :     0.011863

 35 C s       :     1.052376  s :     1.052376
      pz      :     0.854531  p :     2.590205
      px      :     0.728114
      py      :     1.007560
      dz2     :     0.033867  d :     0.183278
      dxz     :     0.034882
      dyz     :     0.027809
      dx2y2   :     0.043641
      dxy     :     0.043081

 36 F s       :     1.883790  s :     1.883790
      pz      :     1.810092  p :     5.323679
      px      :     1.572012
      py      :     1.941576
      dz2     :     0.003764  d :     0.023290
      dxz     :     0.007668
      dyz     :     0.001534
      dx2y2   :     0.006107
      dxy     :     0.004218

 37 C s       :     0.964443  s :     0.964443
      pz      :     1.017127  p :     2.901361
      px      :     0.926416
      py      :     0.957819
      dz2     :     0.011534  d :     0.086546
      dxz     :     0.015738
      dyz     :     0.016323
      dx2y2   :     0.020111
      dxy     :     0.022839

 38 H s       :     0.930140  s :     0.930140
      pz      :     0.011717  p :     0.044793
      px      :     0.021722
      py      :     0.011353

 39 H s       :     0.915468  s :     0.915468
      pz      :     0.011981  p :     0.046235
      px      :     0.015051
      py      :     0.019204

 40 H s       :     0.916453  s :     0.916453
      pz      :     0.014464  p :     0.045101
      px      :     0.011910
      py      :     0.018727

 41 H s       :     0.919275  s :     0.919275
      pz      :     0.011464  p :     0.043811
      px      :     0.013767
      py      :     0.018580

 42 H s       :     0.918213  s :     0.918213
      pz      :     0.011178  p :     0.044091
      px      :     0.023123
      py      :     0.009790

 43 H s       :     0.905167  s :     0.905167
      pz      :     0.023156  p :     0.044540
      px      :     0.009564
      py      :     0.011819

 44 H s       :     0.917563  s :     0.917563
      pz      :     0.010798  p :     0.043954
      px      :     0.022294
      py      :     0.010863

 45 H s       :     0.913803  s :     0.913803
      pz      :     0.016620  p :     0.050839
      px      :     0.023664
      py      :     0.010554

 46 H s       :     0.897668  s :     0.897668
      pz      :     0.021240  p :     0.051548
      px      :     0.016041
      py      :     0.014267

 47 H s       :     0.888941  s :     0.888941
      pz      :     0.025292  p :     0.050995
      px      :     0.013511
      py      :     0.012192

 48 H s       :     0.902535  s :     0.902535
      pz      :     0.016678  p :     0.052334
      px      :     0.023709
      py      :     0.011947

 49 H s       :     0.907561  s :     0.907561
      pz      :     0.021505  p :     0.051634
      px      :     0.013990
      py      :     0.016139

 50 H s       :     0.911529  s :     0.911529
      pz      :     0.024295  p :     0.050897
      px      :     0.013487
      py      :     0.013115

 51 H s       :     0.900766  s :     0.900766
      pz      :     0.020160  p :     0.050207
      px      :     0.014248
      py      :     0.015799

 52 H s       :     0.896791  s :     0.896791
      pz      :     0.025398  p :     0.051740
      px      :     0.013296
      py      :     0.013046

 53 H s       :     0.915574  s :     0.915574
      pz      :     0.019817  p :     0.051019
      px      :     0.012197
      py      :     0.019005



                     *******************************
                     * LOEWDIN POPULATION ANALYSIS *
                     *******************************

----------------------
LOEWDIN ATOMIC CHARGES
----------------------
   0 C :   -0.109553
   1 C :   -0.077827
   2 C :   -0.071955
   3 C :   -0.014325
   4 C :   -0.028637
   5 C :    0.047081
   6 F :   -0.065743
   7 C :   -0.040633
   8 C :   -0.021356
   9 C :   -0.015555
  10 C :    0.041745
  11 F :   -0.057894
  12 C :   -0.032414
  13 C :   -0.014920
  14 O :   -0.075891
  15 O :    0.027707
  16 C :   -0.027799
  17 C :   -0.009084
  18 C :    0.044539
  19 F :   -0.064674
  20 C :   -0.033638
  21 C :   -0.026687
  22 C :   -0.018440
  23 C :    0.038802
  24 F :   -0.060101
  25 C :    0.036365
  26 F :   -0.057477
  27 C :    0.034024
  28 F :   -0.054673
  29 C :   -0.008912
  30 C :   -0.006882
  31 C :   -0.025743
  32 C :    0.042327
  33 F :   -0.058546
  34 C :   -0.011500
  35 C :    0.042758
  36 F :   -0.066531
  37 C :   -0.027778
  38 H :    0.039863
  39 H :    0.039669
  40 H :    0.047454
  41 H :    0.047203
  42 H :    0.042392
  43 H :    0.056171
  44 H :    0.053369
  45 H :    0.054187
  46 H :    0.057028
  47 H :    0.060225
  48 H :    0.057061
  49 H :    0.053819
  50 H :    0.054676
  51 H :    0.055252
  52 H :    0.058275
  53 H :    0.053174

-------------------------------
LOEWDIN REDUCED ORBITAL CHARGES
-------------------------------
  0 C s       :     0.764173  s :     0.764173
      pz      :     0.967191  p :     3.099717
      px      :     1.065606
      py      :     1.066921
      dz2     :     0.053779  d :     0.245662
      dxz     :     0.050157
      dyz     :     0.063477
      dx2y2   :     0.038974
      dxy     :     0.039276

[...]
  28 F       0.153839     -0.076335      0.078104      0.069786     -0.113973     -0.006974     -0.062166      0.037922      0.021752      0.000614
  29 C       0.280696     -0.575812      0.000281      0.087604     -0.227798     -0.110766     -0.144294      0.089968     -0.143558      0.073759
  30 C       0.047789      0.409401      0.200243      0.000679     -0.015511      0.064437      0.108097     -0.104849      0.185775     -0.287450
  31 C      -0.044399     -0.526733      0.531266      0.045654      0.015682     -0.165751     -0.048323     -0.058183     -0.097321      0.315161
  32 C      -0.162714     -0.321457      0.317691     -0.170226      0.026140     -0.149765     -0.072501      0.168750      0.003822      0.158693
  33 F       0.045837      0.061060      0.000527     -0.017626     -0.010269     -0.015069      0.067148     -0.101126     -0.014654     -0.096988
  34 C       0.310361      0.173838      0.103654      0.190581      0.154969      0.185348      0.198480     -0.141948      0.127937     -0.200913
  35 C      -0.174985     -0.124298      0.211374     -0.099346     -0.111637     -0.300139     -0.121946     -0.049719      0.158520      0.087866
  36 F      -0.230322      0.009448     -0.151380     -0.022591      0.094794      0.006649      0.010719     -0.058274     -0.064805     -0.009977
  37 C      -0.281638      0.350175     -0.030124      0.067904      0.302367      0.276677      0.085813     -0.048447      0.035444     -0.041502
  38 H       0.044997     -0.002645      0.006524      0.002692      0.009190      0.022152      0.002120      0.016677      0.013435     -0.004429
  39 H      -0.041465     -0.057183      0.011267     -0.014694      0.011102     -0.011873     -0.002158     -0.008837      0.008667     -0.018744
  40 H      -0.028069      0.058960     -0.011307      0.023379      0.006279     -0.002313      0.000988     -0.006699      0.004838      0.016535
  41 H       0.060185      0.027548      0.005866      0.004689     -0.005599      0.012166      0.000792      0.017018     -0.007665      0.013526
  42 H      -0.057426     -0.022673      0.006114     -0.008353     -0.000143     -0.022310      0.001195     -0.019627     -0.006782     -0.003457
  43 H      -0.031577      0.017601      0.041959      0.010553      0.016864     -0.002941     -0.001239     -0.008189      0.021468      0.001603
  44 H       0.028753     -0.006234     -0.043397      0.000347     -0.011483      0.018367     -0.001522      0.008583     -0.007364     -0.005965
  45 H       0.038594      0.010747     -0.021600      0.004062     -0.008507      0.014025     -0.000035      0.013051     -0.009002      0.001000
  46 H       0.022074      0.027526     -0.037531      0.010477     -0.011467      0.012854     -0.000863      0.008991     -0.011243      0.006960
  47 H      -0.001459     -0.024412     -0.045879     -0.006169     -0.011971     -0.001993     -0.001394     -0.001254     -0.015062     -0.005999
  48 H      -0.043888     -0.016579      0.017299     -0.008058      0.007177     -0.018276     -0.000727     -0.015734      0.004211     -0.004401
  49 H       0.024675     -0.045589     -0.028529     -0.013399     -0.010650      0.007646      0.000163      0.009516     -0.012490     -0.012745
  50 H       0.008639      0.024173      0.053540      0.006687      0.014881      0.005390      0.002215      0.000421      0.021606      0.004646
  51 H      -0.008915     -0.032362      0.047334     -0.008504      0.011147     -0.005718      0.000627     -0.005114      0.012778     -0.005774
  52 H       0.018461      0.018404      0.045229      0.009670      0.015000      0.009415      0.002642      0.005558      0.014933      0.006338
  53 H      -0.013470      0.042447      0.023511      0.014920      0.009824     -0.001303      0.000063     -0.004370      0.010298      0.012726

 MBIS THIRD RADIAL MOMENT (A.U.):
  ATOM      <r^3>
   0 C   44.308131
   1 C   41.189543
   2 C   41.798895
   3 C   33.344617
   4 C   41.279854
   5 C   29.772650
   6 F   18.080226
   7 C   39.301465
   8 C   32.442239
   9 C   40.567223
  10 C   29.291401
  11 F   18.095308
  12 C   42.866784
  13 C   23.074775
  14 O   25.667708
  15 O   24.295185
  16 C   30.419233
  17 C   41.094429
  18 C   29.868279
  19 F   18.087173
  20 C   37.113557
  21 C   33.899359
  22 C   39.955069
  23 C   31.630763
  24 F   18.081741
  25 C   34.053268
  26 F   17.907830
  27 C   31.796677
  28 F   17.666996
  29 C   39.671552
  30 C   36.375094
  31 C   39.791769
  32 C   29.337987
  33 F   18.084128
  34 C   39.998762
  35 C   30.246097
  36 F   17.643735
  37 C   40.786750
  38 H    2.428102
  39 H    2.227619
  40 H    2.357323
  41 H    2.345828
  42 H    2.252072
  43 H    2.241875
  44 H    2.219546
  45 H    1.996587
  46 H    1.920538
  47 H    1.869884
  48 H    1.970459
  49 H    1.862170
  50 H    2.115008
  51 H    2.007954
  52 H    1.919835
  53 H    1.978775

-------------------------
RESP CHARGES GENERATION
-------------------------
Number of atoms                    ...           54
Number of "pure atoms"             ...           54
Grid spacing                       ...     0.300000
Point Cut-Off                      ...     2.800000
Van-der-Waals Radii                ...        COSMO
Total charge                       ...            0
Penalty function                   ... hyperbolic
Penalty function wa                ... 0.000500
Penalty function wb                ... 0.100000
Dipole moment constraint           ...        FALSE
Equivalent atom charge constraint  ...        FALSE

Grid generated                     ...      0.0 sec
Grid points                        ...        23957
Potential calculated               ...     11.1 sec
RespFile stored                    ...           ok

Iter     dqmax
--------------

0     0.954788
1     0.053796
2     0.009170
3     0.001695
4     0.000315
5     0.000058
6     0.000011
7     0.000002
8     0.000000

Charges calculated                 ...      1.3 sec

RESP Charges            
--------------------------------
  0   C   :      -0.381470
  1   C   :       0.244944
  2   C   :      -0.295008
  3   C   :       0.251075
  4   C   :      -0.444068
  5   C   :       0.351468
  6   F   :      -0.207745
  7   C   :      -0.197930
  8   C   :       0.354347
  9   C   :      -0.441849
 10   C   :       0.471960
 11   F   :      -0.211619
 12   C   :      -0.561363
 13   C   :       0.940842
 14   O   :      -0.518350
 15   O   :      -0.498429
 16   C   :       0.577867
 17   C   :      -0.531100
 18   C   :       0.378157
 19   F   :      -0.214786
 20   C   :      -0.050737
 21   C   :       0.125641
 22   C   :      -0.367551
 23   C   :       0.242117
 24   F   :      -0.172000
 25   C   :       0.195532
 26   F   :      -0.173482
 27   C   :       0.158230
 28   F   :      -0.124419
 29   C   :      -0.320704
 30   C   :      -0.104203
 31   C   :      -0.466056
 32   C   :       0.496656
 33   F   :      -0.212822
 34   C   :      -0.502117
 35   C   :       0.244034
 36   F   :      -0.173669
 37   C   :      -0.377107
 38   H   :       0.095348
 39   H   :       0.101779
 40   H   :       0.087780
 41   H   :      -0.014865
 42   H   :      -0.009638
 43   H   :       0.080485
 44   H   :       0.110672
 45   H   :       0.227441
 46   H   :       0.229481
 47   H   :       0.270201
 48   H   :       0.214685
 49   H   :       0.225293
 50   H   :       0.185867
 51   H   :       0.245534
 52   H   :       0.245613
 53   H   :       0.220038
--------------------------------
Total charge:     0.000000
--------------------------------

RESP charges calculated...

Timings:
Grid generation                 ...        0.016 sec (=   0.000 min)
Potential calculation           ...       11.088 sec (=   0.185 min)
Fit to the potential            ...        1.304 sec (=   0.022 min)
------------------------------------------------------------------------------

-------
TIMINGS
-------

Total SCF time: 0 days 0 hours 18 min 18 sec 

Total time                  ....    1098.974 sec
Sum of individual times     ....    1062.629 sec  ( 96.7%)

SCF preparation             ....       2.279 sec  (  0.2%)
Fock matrix formation       ....     832.590 sec  ( 75.8%)
  Startup                   ....       0.088 sec  (  0.0% of F)
  Split-RI-J                ....      54.533 sec  (  6.5% of F)
  Chain of spheres X        ....     755.509 sec  ( 90.7% of F)
  XC integration            ....      57.106 sec  (  6.9% of F)
    XC Preparation          ....       0.000 sec  (  0.0% of XC)
    Basis function eval.    ....      15.133 sec  ( 26.5% of XC)
    Density eval.           ....      22.459 sec  ( 39.3% of XC)
    XC-Functional eval.     ....       1.171 sec  (  2.0% of XC)
    XC-Potential eval.      ....      14.693 sec  ( 25.7% of XC)
Diagonalization             ....       0.000 sec  (  0.0%)
Density matrix formation    ....       0.573 sec  (  0.1%)
Total Energy calculation    ....       0.286 sec  (  0.0%)
Population analysis         ....     222.738 sec  ( 20.3%)
Orbital Transformation      ....       0.406 sec  (  0.0%)
Orbital Orthonormalization  ....       0.000 sec  (  0.0%)
DIIS solution               ....       2.496 sec  (  0.2%)
SOSCF solution              ....       1.261 sec  (  0.1%)
Finished LeanSCF after 1099.1 sec

Maximum memory used throughout the entire LEANSCF-calculation: 159.9 MB


-------------------------------------------------------------------------------
                          DFT DISPERSION CORRECTION                            
                                                                               
                                DFTD4 V3.4.0                                   
-------------------------------------------------------------------------------
The wB97X-3c composite method is recognized
Using three-body term ABC
Active option DFTDOPT                   ...         5   

-------------------------   ----------------
Dispersion correction           -0.099605183
-------------------------   ----------------


-------------------------   --------------------
FINAL SINGLE POINT ENERGY      -395.794946523650
-------------------------   --------------------



           ************************************************************
           *        Program running with 4 parallel MPI-processes     *
           *              working on a common directory               *
           ************************************************************

------------------------------------------------------------------------------
                              ORCA PROPERTY CALCULATIONS
------------------------------------------------------------------------------

GBWName                                 ... conf_029.gbw
Number of atoms                         ...     54
Number of basis functions               ...    574
Max core memory                         ...   4000 MB

Electric properties:
Dipole moment                           ... YES
Quadrupole moment                       ...  NO
Static polarizability (Dipole/Dipole)   ...  NO
Static polarizability (Dipole/Quad.)    ...  NO
Static polarizability (Quad./Quad.)     ...  NO
Static polarizability (Velocity)        ...  NO
Static hyperpolarizability              ...  NO

Atomic electric properties:
Dipole moment                           ...  NO
Quadrupole moment                       ...  NO
Static polarizability                   ...  NO

Choice of electric origin               ... Center of mass
Position of electric origin             ...    -0.958837    -0.812680     0.043167

General magnetic properties:
Magnetizability                         ...  NO

EPR properties:
g-Tensor (aka g-matrix)                 ...  NO
Zero-Field splitting spin-orbit         ...  NO
Zero-field splitting spin-spin          ...  NO
Hyperfine couplings                     ...  NO (   0 nuclei)
Quadrupole couplings                    ...  NO (   0 nuclei)
Contact density                         ...  NO (   0 nuclei)

NMR properties:
Chemical shifts                         ...  NO (   0 nuclei)
Spin-rotation constants                 ...  NO (   0 nuclei)
Spin-spin couplings                     ...  NO (   0 nuclei,    0 pairs)

Choice of magnetic origin               ... GIAO
Position of magnetic origin             ...     0.000000     0.000000     0.000000

Properties with geometric perturbations:
SCF Hessian                             ...  NO
IR spectrum                             ...  NO
VCD spectrum                            ...  NO
X-ray spectroscopy properties:
SCF XES/XAS/RIXS spectra                ...  NO

SCF SOC stabilization energy            ...  NO
Diagonal Born-Oppenheimer correction    ...  NO

-------------
DIPOLE MOMENT
-------------

Method             : SCF
Type of density    : Electron Density
Multiplicity       :   1
Irrep              :   0
Energy             :  -395.6953413404185653 Eh
Basis              : AO
                                X                 Y                 Z
Electronic contribution:    -26.154714611     -23.657749477       1.761042969
Nuclear contribution   :     27.167176675      25.373519034      -1.062121358
                        -----------------------------------------
Total Dipole Moment    :      1.012462064       1.715769557       0.698921612
                        -----------------------------------------
Magnitude (a.u.)       :      2.111264082
Magnitude (Debye)      :      5.366406822



--------------------
Rotational spectrum 
--------------------
 
Rotational constants in cm-1:             0.005057             0.002740             0.002121 
Rotational constants in MHz :           151.598127            82.147084            63.589346 

Dipole components along the rotational axes: 
x,y,z [a.u.] :     2.050446     0.089232     0.495122 
x,y,z [Debye]:     5.211819     0.226810     1.258501 

 

Dipole moment calculation done in   0.0 sec 

Maximum memory used throughout the entire PROP-calculation: 75.6 MB

--------------------------------
SUGGESTED CITATIONS FOR THIS RUN
--------------------------------

Below you find a list of papers that are relevant to this ORCA run
We neither can nor want to force you to cite these papers, but we appreciate if you do
You receive ORCA, which is the product of decades of hard work by many enthusiastic individuals, for free
The only thing we kindly ask in return is that you cite our papers,
We deeply appreciate it, if you show your appreciation for ORCA by not just citing the generic ORCA reference.

Please note that relegating all ORCA citations to the supporting information does *not* help us.
SI sections are not indexed - citations you put there will not count into any citation statistics
But we need these citations in order to attract the funding resources that allow us to do what we are doing

Therefore, if you are a happy ORCA user, please consider citing a few of the papers listed below in the main body of your paper

In addition to the list printed below, the program has created the file conf_029.bibtex that contains the list in bibtex format
You can import this file easily into all common literature databanks and citation aid programs


List of essential papers. We consider these as the minimum necessary citations

  1. Mueller, M.; Hansen, A.; Grimme, S.
     wB97X-3c: A composite range-separated hybrid DFT method with a molecule-optimized polarized valence double-zeta basis set
     J. Chem. Phys. 2023 158 , 014103
     doi.org/10.1063/5.0133026
  2. Neese, F.
     Software update: the ORCA program system, version 6.0
     WIRES Comput. Molec. Sci. 2025 15(1), e70019
     doi.org/10.1002/wcms.7019

List of papers to cite with high priority. The work reported in these papers was absolutely
necessary for this run to complete.
Our perspective: the developers of density functionals and basis sets usually get cited in chemistry papers
Good! But without the algorithms to do something with them, the functionals or basis sets would not do anything.
Hence, in our opinion, the algorithm design and method developments papers are equally worthy of getting cited

  1. Neese, F.
     An improvement of the resolution of the identity approximation for the formation of the Coulomb matrix
     J. Comp. Chem. 2003 24(14), 1740-1747
     doi.org/10.1002/jcc.10318
  2. Neese, F.; Wennmohs, F.; Hansen, A.; Becker, U.
     Efficient, approximate and parallel Hartree-Fock and hybrid DFT calculations. A 'chain-of-spheres' algorithm for the Hartree-Fock exchange
     Chem. Phys. 2009 356(1-3), 98-109
     doi.org/10.1016/j.chemphys.2008.10.036
  3. Caldeweyher, E.; Bannwarth, C.; Grimme, S.
     Extension of the D3 dispersion coefficient model
     J. Chem. Phys. 2017 147 , 034112
     doi.org/10.1063/1.4993215
  4. Caldeweyher, E.; Ehlert, S.; Hansen, A.; Neugebauer, H.; Spicher, S.; Bannwarth, C.; Grimme, S.
     A generally applicable atomic-charge dependent London dispersion correction
     J. Chem. Phys. 2019 150 , 154122
     doi.org/10.1063/1.5090222
  5. Caldeweyher, E.; Mewes, J.; Ehlert, S.; Grimme, S.
     Extension and evaluation of the D4 London-dispersion model for periodic systems
     Phys. Chem. Chem. Phys. 2020 22(16), 8499-8512
     doi.org/10.1039/D0CP00502A
  6. Helmich-Paris, B.; de Souza, B.; Neese, F.; Izsák, R.
     An improved chain of spheres for exchange algorithm
     J. Chem. Phys. 2021 155(10), 104109
     doi.org/10.1063/5.0058766
  7. Neese, F.
     The SHARK Integral Generation and Digestion System
     J. Comp. Chem. 2022 44(3), 381
     doi.org/10.1002/jcc.26942
  8. Wittmann, L.; Gordiy, I.; Friede, M.; Helmich-Paris, B.; Grimme, S.; Hansen, A.; Bursch, M.
     Extension of the D3 and D4 London Dispersion Corrections to the full Actinides Series
     Phys. Chem. Chem. Phys. 2024 26(32), 21379-21394
     doi.org/10.1039/D4CP01514B

List of suggested additional citations. These are papers that are important in the 'surrounding' of 
of this run, or papers that preceded the highly important papers. If you like your results we are grateful for a citation.

  1. Izsak, R.; Neese, F.
     An overlap fitted chain of spheres exchange method
     J. Chem. Phys. 2011 135 , 144105
     doi.org/10.1063/1.3646921
  2. Izsak, R.; Hansen, A.; Neese, F.
     The resolution of identity and chain of spheres approximations for the LPNO-CCSD singles Fock term
     Molec. Phys. 2012 110 , 2413-2417
     doi.org/10.1080/00268976.2012.687466
  3. Neese, F.
     The ORCA program system
     WIRES Comput. Molec. Sci. 2012 2(1), 73-78
     doi.org/10.1002/wcms.81
  4. Izsak, R.; Neese, F.; Klopper, W.
     Robust fitting techniques in the chain of spheres approximation to the Fock exchange: The role of the complementary space
     J. Chem. Phys. 2013 139 , 
     doi.org/10.1063/1.4819264
  5. Neese, F.
     Software update: the ORCA program system, version 4.0
     WIRES Comput. Molec. Sci. 2018 8(1), 1-6
     doi.org/10.1002/wcms.1327
  6. Neese, F.; Wennmohs, F.; Becker, U.; Riplinger, C.
     The ORCA quantum chemistry program package
     J. Chem. Phys. 2020 152(22), 224108
     doi.org/10.1063/5.0004608
  7. Neese, F.
     Software update: The ORCA program system—Version 5.0
     WIRES Comput. Molec. Sci. 2022 12(1), e1606
     doi.org/10.1002/wcms.1606

List of optional additional citations

  1. Neese, F.
     Approximate second-order SCF convergence for spin unrestricted wavefunctions
     Chem. Phys. Lett. 2000 325(1-3), 93-98
     doi.org/10.1016/s0009-2614(00)00662-x

Timings for individual modules:

Sum of individual times          ...     1129.673 sec (=  18.828 min)
Startup calculation              ...       18.467 sec (=   0.308 min)   1.6 %
SCF iterations                   ...     1109.239 sec (=  18.487 min)  98.2 %
Property calculations            ...        1.967 sec (=   0.033 min)   0.2 %
                             ****ORCA TERMINATED NORMALLY****
TOTAL RUN TIME: 0 days 0 hours 18 minutes 51 seconds 606 msec
