Loading openmpi/5.0.6/gcc-14.2.0
  Loading requirement: gcc/14.2.0

                                 *****************
                                 * O   R   C   A *
                                 *****************

                                            #,                                       
                                            ###                                      
                                            ####                                     
                                            #####                                    
                                            ######                                   
                                           ########,                                 
                                     ,,################,,,,,                         
                               ,,#################################,,                 
                          ,,##########################################,,             
                       ,#########################################, ''#####,          
                    ,#############################################,,   '####,        
                  ,##################################################,,,,####,       
                ,###########''''           ''''###############################       
              ,#####''   ,,,,##########,,,,          '''####'''          '####       
            ,##' ,,,,###########################,,,                        '##       
           ' ,,###''''                  '''############,,,                           
         ,,##''                                '''############,,,,        ,,,,,,###''
      ,#''                                            '''#######################'''  
     '                                                          ''''####''''         
             ,#######,   #######,   ,#######,      ##                                
            ,#'     '#,  ##    ##  ,#'     '#,    #''#        ,####,    ,#,          
            ##       ##  ##   ,#'  ##            #'  '#       #'       ,# #          
            ##       ##  #######   ##           ,######,      #####,      #          
            '#,     ,#'  ##    ##  '#,     ,#' ,#      #,     #,   #      #          
             '#######'   ##     ##  '#######'  #'      '#     '####' #    #          



                #########################################################
                #                        -***-                          #
                #          Department of theory and spectroscopy        #
                #                                                       #
                #                      Frank Neese                      #
                #                                                       #
                #     Directorship, Architecture, Infrastructure        #
                #                    SHARK, DRIVERS                     #
                #        Core code/Algorithms in most modules           #
                #                                                       #
                #        Max Planck Institute fuer Kohlenforschung      #
                #                Kaiser Wilhelm Platz 1                 #
                #                 D-45470 Muelheim/Ruhr                 #
                #                      Germany                          #
                #                                                       #
                #                  All rights reserved                  #
                #                        -***-                          #
                #########################################################


                         Program Version 6.1.0  -  RELEASE   -
                                (GIT: $679e74b$)
                          ($2025-06-10 18:02:51 +0200$)


 With contributions from (in alphabetic order):
[Max-Planck-Institut fuer Kohlenforschung]                               
  Daniel Aravena         : Magnetic Suceptibility                        
  Michael Atanasov       : Ab Initio Ligand Field Theory (pilot matlab implementation)
  Alexander A. Auer      : GIAO ZORA, VPT2 properties, NMR spectrum      
  Ute Becker             : All parallelization in ORCA, NUMFREQ, NUMCALC 
  Giovanni Bistoni       : ED, misc. LED, open-shell LED, HFLD           
  Dmytro Bykov           : pre 5.0 version of the SCF Hessian            
  Marcos Casanova-Páez   : Triplet and SCS-CIS(D). UHF-(DLPNO)-IP/EA/STEOM-CCSD. UHF-CVS-IP/STEOM-CCSD   
  Vijay G. Chilkuri      : MRCI spin determinant printing, contributions to CSF-ICE 
  Pauline Colinet        : FMM embedding                                 
  Dipayan Datta          : RHF DLPNO-CCSD density                        
  Achintya Kumar Dutta   : EOM-CC, STEOM-CC                              
  Nicolas Foglia         : Exact transition moments, OPA infrastructure, MCD improvements    
  Dmitry Ganyushin       : Spin-Orbit,Spin-Spin,Magnetic field MRCI      
  Miquel Garcia-Rates    : C-PCM and meta-GGA Hessian, CCSD/C-PCM, Gaussian charge scheme 
  Tiago L. C. Gouveia    : GS-ROHF, GS-ROCIS                             
  Yang Guo               : DLPNO-NEVPT2, F12-NEVPT2, CIM, IAO-localization        
  Andreas Hansen         : Spin unrestricted coupled pair/coupled cluster methods 
  Ingolf Harden          : AUTO-CI MPn and infrastructure                
  Benjamin Helmich-Paris : MC-RPA, TRAH-(SCF,CASSCF), AVAS, COSX integrals, SCF dyn. polar., MC-PDFT, srDFT 
  Lee Huntington         : MR-EOM, pCC                                   
  Robert Izsak           : Overlap fitted RIJCOSX, COSX-SCS-MP3, EOM     
  Riya Kayal             : Wick's Theorem for AUTO-CI, AUTO-CI UHF-CCSDT 
  Emily Kempfer          : AUTO-CI RHF CISDT and CCSDT, approximate NEVPT4
  Christian Kollmar      : KDIIS, OOCD, Brueckner-CCSD(T), CCSD density, CASPT2, CASPT2-K, improved NEVPT2 
  Axel Koslowski         : Symmetry handling                             
  Simone Kossmann        : meta-GGA functionals, TD-DFT gradient, OOMP2, (MP2 Hessian; deprecated post 5.0) 
  Lucas Lang             : DCDCAS, Hyperfine gauge corrections, ICE-SOC+SSC
  Marvin Lechner         : AUTO-CI (C++ implementation), FIC-MRCC        
  Spencer Leger          : CASSCF response                               
  Dagmar Lenk            : GEPOL surface, SMD, ORCA-2-JSON               
  Dimitrios Liakos       : Extrapolation schemes; Compound Job, Property file
  Dimitrios Manganas     : Further ROCIS development; embedding schemes. LFT, Crystal Embedding 
  Dimitrios Pantazis     : SARC Basis sets                               
  Anastasios Papadopoulos: AUTO-CI, single reference methods and gradients 
  Taras Petrenko         : pre 6.0 DFT Hessian and TD-DFT gradient,  ECA, NRVS 
  Petra Pikulova         : Analytic Raman intensities                    
  Peter Pinski           : DLPNO-MP2, DLPNO-MP2 Gradient                 
  Shashank Vittal Rao    : ES-AILFT, MagRelax                            
  Christoph Reimann      : Effective Core Potentials                     
  Marius Retegan         : Local ZFS, SOC                                
  Christoph Riplinger    : Optimizer, TS searches, QM/MM, DLPNO-CCSD(T), (RO)-DLPNO pert. Triples 
  Michael Roemelt        : Original ROCIS implementation, recursive CI coupling coefficients
  Masaaki Saitow         : Open-shell DLPNO-CCSD energy and density      
  Barbara Sandhoefer     : DKH picture change effects                    
  Yorick L. A. Schmerwitz: GMF and freeze-and-release deltaSCF, NEB S-IDPP initial path                    
  Kantharuban Sivalingam : CASSCF convergence/infrastructure, NEVPT2, NEVPT3, NEVPT4(SD), FIC-MRCI and CEPA variants
  Bernardo de Souza      : ESD, SOC TD-DFT                               
  Georgi L. Stoychev     : AutoAux, RI-MP2 NMR, DLPNO-MP2 response, X2C  
  Van Anh Tran           : RI-MP2 g-tensors                              
  Willem Van den Heuvel  : Paramagnetic NMR                              
  Zikuan Wang            : NOTCH, Electric field optimization            
  Frank Wennmohs         : Technical directorship and infrastructure     
  Hang Xu                : AUTO-CI-Response properties                   
                                                                         
[FACCTs GmbH]                                                            
  Markus Bursch, Nicolas Foglia, Miquel Garcia-Rates, Ingolf Harden, Hagen Neugebauer, Anastasios Papadopoulos, 
  Christoph Riplinger, Bernardo de Souza, Georgi L. Stoychev                                                    
                                                                 
  APM, various basis sets, CI-OPT, improved COSX, DLPNO-Multilevel,           
  DOCKER, DRACO, updates on ESD, Fragmentator, GOAT, IRC, LR-CPCM, L-BFGS, MBIS, meta-GGA TD-DFT gradient, ML-optimized integration grids, 
  MM, NACMEs, nearIR, NEB, NEB-TS, NL-DFT gradient (VV10), 2- and 3-layer-ONIOM, interface openCOSMO-RS, QMMM,   
  Crystal-QMMM, RESP, rigid body optimization, SF, symmetry and pop. for TD-DFT, various functionals, SOLVATOR                                   
                                                                         
[Other institutions]                                                     
  V. Asgeirsson          : NEB                                           
  Christoph Bannwarth    : sTDA-DFT, sTD-DFT, PBEh-3c, B97-3c, D3        
  Giovanni Bistoni       : ETS/NOCV, ADLD/ADEX, COVALED                  
  Martin Brehm           : Molecular dynamics                            
  Ronald Cardenas        : ETS/NOCV                                      
  Martina Colucci        : COVALED                                       
  Sebastian Ehlert       : rSCAN, r2SCAN, r2SCAN-3c, D4, dhf basis sets  
  Marvin Friede          : D4 for Fr, Ra, Ac-Lr                          
  Lars Goerigk           : TD-DFT with DH, B97 family of functionals     
  Stefan Grimme          : VdW corrections, initial TS optimization, DFT functionals, gCP, sTDA/sTD-DF 
  Waldemar Hujo          : DFT-NL                                        
  H. Jonsson             : NEB                                           
  Holger Kruse           : gCP                                           
  Marcel Mueller         : wB97X-3c, vDZP basis set                      
  Hagen Neugebauer       : wr2SCAN, Native XTB                           
  Gianluca Regni         : ADLD/ADEX                                     
  Tobias Risthaus        : pre 6.0 range-separated hybrid DFT and stability analysis
  Lukas Wittmann         : regularized MP2, r2SCAN double-hybrids, wr2SCAN        
                                                                         
We gratefully acknowledge several colleagues who have allowed us to      
interface, adapt or use parts of their codes:                            
  Ed Valeev, F. Pavosevic, A. Kumar             : LibInt (2-el integral package), F12 methods 
  Garnet Chan, S. Sharma, J. Yang, R. Olivares  : DMRG                   
  Ulf Ekstrom                                   : XCFun DFT Library      
  Mihaly Kallay                                 : mrcc  (arbitrary order and MRCC methods)
  Frank Weinhold                                : gennbo (NPA and NBO analysis)           
  Simon Mueller                                 : openCOSMO-RS                            
  Christopher J. Cramer and Donald G. Truhlar   : smd solvation model                     
  S Lehtola, MJT Oliveira, MAL Marques          : LibXC Library                           
  Liviu Ungur et al                             : ANISO software                          


 Your calculation uses the libint2 library for the computation of 2-el integrals
 For citations please refer to: http://libint.valeyev.net

 Your ORCA version has been built with support for libXC version: 7.0.0
 For citations please refer to: https://libxc.gitlab.io

 This ORCA versions uses:
   CBLAS   interface :  Fast vector & matrix operations
   LAPACKE interface :  Fast linear algebra routines
   SCALAPACK package :  Parallel linear algebra routines
   Shared memory     :  Shared parallel matrices
   BLAS/LAPACK       :  OpenBLAS 0.3.29  USE64BITINT DYNAMIC_ARCH NO_AFFINITY Cooperlake SINGLE_THREADED
        Core in use  :  Cooperlake
   Copyright (c) 2011-2014, The OpenBLAS Project


  ***********************************
  * Starting time: Wed May 13 14:54:46 2026
  * Host name:     node043.aire.lee.alces.network
  * Process ID:    676877
  * Working dir.:  /tmp/job.4919709
  ***********************************

NOTE: MaxCore=4000 MB was set to SCF,MP2,MDCI,CIPSI,MRCI,RASCI and CIS
      => If you want to overwrite this, your respective input block should be placed after the MaxCore statement


***************************************
The coordinates will be read from file: conf_008.xyz
***************************************


Your calculation utilizes the atom-pairwise dispersion correction
based on EEQ partial charges (D4)


================================================================================

cite the ECPs for C  [vDZP-ECP], F  [vDZP-ECP], O  [vDZP-ECP] as follows:
   B-Ne (ecp-2-mwb), Al-Ar (ecp-10-mwb), Ga-Kr (ecp-28-mwb), Y-Cd (ecp-28-mwb), In-Xe (ecp-46-mwb):
     A. Bergner, M. Dolg, W. Küchle, H. Stoll, and H. Preuß, Mol. Phys. 80, 1431 (1993)., T. Leininger, A. Berning, A. Nicklass, H. Stoll, H.-J. Werner, and H.-J.Flad, Chem. Phys. 217, 19 (1997).
   Na-Mg, K-Ca, Rb-Sr, Cs-Ba (CRENBL):
     L. Fernandez Pacios and P. A. Christiansen, J. Chem. Phys. 82, 2664 (1985)., M. M. Hurley, L. F. Pacios, P. A. Christiansen, R. B. Ross, and W. C. Ermler, J. Chem. Phys. 84, 6840 (1986)., L. A. LaJohn, P. A. Christiansen, R. B. Ross, T. Atashroo, and W. C. Ermler, J. Chem. Phys. 87, 2812 (1987)., R. B. Ross, J. M. Powers, T. Atashroo, W. C. Ermler, L. A. LaJohn, and P. A. Christiansen, J. Chem. Phys. 93, 6654 (1990). 
   Sc-Zn (ecp-10-mdf):
     M. Dolg, U. Wedig, H. Stoll, and H. Preuss, J. Chem. Phys. 86, 866 (1986). 
   Y-Cd (ecp-28-mwb), Hf-Hg (ecp-60-mwb):
     D. Andrae, U. Häußermann, M. Dolg, H. Stoll, and H. Preuß, Theor. Chim. Acta 77, 123 (1990). 
   La (ecp-46-mwb):
     M. Dolg, H. Stoll, and H. Preuss, J. Chem. Phys. 90, 1730 (1989)., M. Dolg, H. Stoll, and H. Preuss, Theor. Chim. Acta 85, 441 (1993).
   Ce-Lu (SBKJC-ecp):
     T. R. Cundari and W. J. Stevens, J. Chem. Phys. 98, 5555 (1993).
   Tl-Rn (ecp-78-mwb):
     W. Küchle, M. Dolg, H. Stoll, and H. Preuss, Mol. Phys. 74, 1245 (1991).

ECP parameters for C  [vDZP-ECP], F  [vDZP-ECP], O  [vDZP-ECP] have been obtained from:
MM, AH, SG, J. Chem. Phys. 158, 014103 (2023), 10.1063/5.0133026

----- Orbital basis set information -----
Your calculation utilizes the basis: vDZP
   Marcel Mueller, Andreas Hansen, Stefan Grimme 
   J. Chem. Phys. 158, 014103 (2023). DOI: 10.1063/5.0133026

----- AuxJ basis set information -----
Your calculation utilizes the auxiliary basis: def2/J
   H-Rn: F. Weigend, Phys. Chem. Chem. Phys. 8, 1057 (2006).
   Fr-Lr: K. Eichkorn, F. Weigend, O. Treutler, R. Ahlrichs; Theor. Chem. Acc. 97, 119 (1997).

================================================================================
                                        WARNINGS
                       Please study these warnings very carefully!
================================================================================

WARNING: Frozen-Core approximation turned on, but there are no core electrons.
  ===> : Turning off frozen-core approximation


================================================================================
                                       INPUT FILE
================================================================================
NAME = conf_008.inp
|  1> ! wb97x-3c mbis hirshfeld chelpg resp
|  2> %pal nprocs 4 end
|  3> %maxcore 4000
|  4> %method
|  5> 	   MBIS_LARGEPRINT TRUE
|  6> 	end
|  7> #conf_008
|  8> * xyzfile 0 1 conf_008.xyz
|  9> 
| 10>                          ****END OF INPUT****
================================================================================

                       ****************************
                       * Single Point Calculation *
                       ****************************

---------------------------------
CARTESIAN COORDINATES (ANGSTROEM)
---------------------------------
  C     10.540711    0.763952   -0.754663
  C      9.070093    0.393446   -0.619025
  C      8.182278    1.643265   -0.534516
  C      6.742808    1.254437   -0.403770
  C      5.957035    1.051049   -1.531247
  C      4.642552    0.652886   -1.396455
  F      3.922856    0.455156   -2.516607
  C      4.041988    0.422019   -0.158352
  C      2.641061   -0.007662   -0.030783
  C      1.645030    0.611816   -0.781590
  C      0.334062    0.201874   -0.647714
  F     -0.597572    0.809648   -1.394489
  C     -0.041846   -0.830998    0.210778
  C     -1.451049   -1.310689    0.324659
  O     -1.770823   -2.463132    0.400018
  O     -2.288133   -0.259069    0.308763
  C     -3.658761   -0.390543    0.366384
  C     -4.379731    0.620835   -0.258616
  C     -5.757174    0.592233   -0.207899
  F     -6.429612    1.572992   -0.839181
  C     -6.459648   -0.423940    0.440901
  C     -7.929634   -0.456062    0.480502
  C     -8.600439   -1.662074    0.291213
  C     -9.980199   -1.701574    0.333472
  F    -10.610538   -2.869031    0.143300
  C    -10.726479   -0.551939    0.570168
  F    -12.063193   -0.598056    0.614426
  C    -10.045850    0.646054    0.759839
  F    -10.741578    1.765644    0.997703
  C     -8.666110    0.701819    0.715191
  C     -5.704240   -1.421764    1.052960
  C     -4.322320   -1.413460    1.031306
  C      0.980536   -1.436164    0.942291
  F      0.677082   -2.415952    1.798621
  C      2.298438   -1.037569    0.841154
  C      4.863563    0.627642    0.950576
  F      4.350791    0.451281    2.182679
  C      6.177389    1.036929    0.846543
  H     10.868678    1.349862    0.100977
  H     11.153358   -0.132167   -0.811630
  H     10.706621    1.350600   -1.655362
  H      8.760982   -0.207273   -1.476711
  H      8.923861   -0.210298    0.278835
  H      8.326010    2.242468   -1.434889
  H      8.487282    2.238016    0.327809
  H      6.357318    1.202316   -2.521362
  H      1.874232    1.413505   -1.464897
  H     -3.864822    1.411755   -0.779231
  H     -8.060814   -2.573008    0.088139
  H     -8.183702    1.652489    0.873559
  H     -6.214956   -2.211581    1.581178
  H     -3.770474   -2.198460    1.520575
  H      3.043257   -1.540837    1.436154
  H      6.749823    1.187312    1.748276

----------------------------
CARTESIAN COORDINATES (A.U.)
----------------------------
  NO LB      ZA    FRAG     MASS         X           Y           Z
   0 C     4.0000*   0    12.011   19.919056    1.443661   -1.426106
   1 C     4.0000*   0    12.011   17.139992    0.743504   -1.169787
   2 C     4.0000*   0    12.011   15.462264    3.105322   -1.010090
   3 C     4.0000*   0    12.011   12.742060    2.370542   -0.763015
   4 C     4.0000*   0    12.011   11.257166    1.986195   -2.893638
   5 C     4.0000*   0    12.011    8.773153    1.233776   -2.638917
   6 F     7.0000*   0    18.998    7.413124    0.860120   -4.755699
   7 C     4.0000*   0    12.011    7.638251    0.797500   -0.299242
   8 C     4.0000*   0    12.011    4.990881   -0.014479   -0.058172
   9 C     4.0000*   0    12.011    3.108656    1.156165   -1.476990
  10 C     4.0000*   0    12.011    0.631285    0.381487   -1.224002
  11 F     7.0000*   0    18.998   -1.129247    1.530014   -2.635202
  12 C     4.0000*   0    12.011   -0.079078   -1.570358    0.398312
  13 C     4.0000*   0    12.011   -2.742086   -2.476844    0.613517
  14 O     6.0000*   0    15.999   -3.346370   -4.654644    0.755925
  15 O     6.0000*   0    15.999   -4.323944   -0.489569    0.583477
  16 C     4.0000*   0    12.011   -6.914056   -0.738019    0.692365
  17 C     4.0000*   0    12.011   -8.276491    1.173208   -0.488713
  18 C     4.0000*   0    12.011  -10.879482    1.119158   -0.392871
  19 F     7.0000*   0    18.998  -12.150205    2.972525   -1.585822
  20 C     4.0000*   0    12.011  -12.206966   -0.801131    0.833183
  21 C     4.0000*   0    12.011  -14.984837   -0.861833    0.908017
  22 C     4.0000*   0    12.011  -16.252475   -3.140865    0.550312
  23 C     4.0000*   0    12.011  -18.859842   -3.215509    0.630171
  24 F     7.0000*   0    18.998  -20.051011   -5.421683    0.270797
  25 C     4.0000*   0    12.011  -20.270108   -1.043013    1.077462
  26 F     7.0000*   0    18.998  -22.796131   -1.130162    1.161097
  27 C     4.0000*   0    12.011  -18.983905    1.220865    1.435887
  28 F     7.0000*   0    18.998  -20.298641    3.336583    1.885385
  29 C     4.0000*   0    12.011  -16.376575    1.326246    1.351516
  30 C     4.0000*   0    12.011  -10.779451   -2.686745    1.989806
  31 C     4.0000*   0    12.011   -8.168002   -2.671052    1.948885
  32 C     4.0000*   0    12.011    1.852944   -2.713956    1.780672
  33 F     7.0000*   0    18.998    1.279500   -4.565489    3.398902
  34 C     4.0000*   0    12.011    4.343419   -1.960721    1.589551
  35 C     4.0000*   0    12.011    9.190802    1.186072    1.796329
  36 F     7.0000*   0    18.998    8.221803    0.852798    4.124666
  37 C     4.0000*   0    12.011   11.673573    1.959511    1.599734
  38 H     1.0000    0     1.008   20.538825    2.550869    0.190818
  39 H     1.0000    0     1.008   21.076793   -0.249760   -1.533759
  40 H     1.0000    0     1.008   20.232582    2.552265   -3.128181
  41 H     1.0000    0     1.008   16.555857   -0.391690   -2.790580
  42 H     1.0000    0     1.008   16.863654   -0.397405    0.526921
  43 H     1.0000    0     1.008   15.733879    4.237651   -2.711546
  44 H     1.0000    0     1.008   16.038639    4.229237    0.619470
  45 H     1.0000    0     1.008   12.013591    2.272047   -4.764684
  46 H     1.0000    0     1.008    3.541786    2.671138   -2.768254
  47 H     1.0000    0     1.008   -7.303456    2.667830   -1.472534
  48 H     1.0000    0     1.008  -15.232730   -4.862280    0.166559
  49 H     1.0000    0     1.008  -15.464955    3.122752    1.650788
  50 H     1.0000    0     1.008  -11.744565   -4.179282    2.987994
  51 H     1.0000    0     1.008   -7.125163   -4.154488    2.873471
  52 H     1.0000    0     1.008    5.750923   -2.911760    2.713937
  53 H     1.0000    0     1.008   12.755317    2.243695    3.303764
* core charge reduced due to ECP

--------------------------------
INTERNAL COORDINATES (ANGSTROEM)
--------------------------------
 C      0   0   0     0.000000000000     0.00000000     0.00000000
 C      1   0   0     1.522625936105     0.00000000     0.00000000
 C      2   1   0     1.535384915602   111.42678056     0.00000000
 C      3   2   1     1.496781907951   110.45321934   179.91977483
 C      4   3   2     1.389248019277   120.73657191   271.09444300
 C      5   4   3     1.380061099158   120.11279294   178.00779277
 F      6   5   4     1.346031732341   118.05857381   180.64444649
 C      6   5   4     1.395305019570   122.98157921   359.28612991
 C      8   6   5     1.470883245415   122.36016925   180.26500122
 C      9   8   6     1.392673923892   120.29693530   314.82707582
 C     10   9   8     1.380077004649   119.66671267   180.25744209
 F     11  10   9     1.339777293706   118.14622746   180.65752150
 C     11  10   9     1.394682431597   122.39326890   359.35582612
 C     13  11  10     1.492958943739   122.63680333   182.18750800
 O     14  13  11     1.198355997478   124.44829591   138.21045501
 O     14  13  11     1.344197524668   109.60490462   319.11816600
 C     16  14  13     1.378124471550   122.97141882   178.41006612
 C     17  16  14     1.390434387287   115.30987960   208.79726912
 C     18  17  16     1.378673271987   119.10636379   182.26143565
 F     19  18  17     1.346320587749   117.81741296   180.99806041
 C     19  18  17     1.395356257583   122.35756500   359.47103603
 C     21  19  18     1.470870647317   122.11073908   180.60590118
 C     22  21  19     1.392937087188   119.77107229   137.93757399
 C     23  22  21     1.380971439146   120.11644283   179.68276507
 F     24  23  22     1.340317014531   119.37020122   179.69802952
 C     24  23  22     1.390906539451   121.17395484   359.67783234
 F     26  24  23     1.338241085873   120.86887625   180.23293406
 C     26  24  23     1.390833550774   118.20166854     0.21571163
 F     28  26  24     1.339439200783   119.34072694   180.41338837
 C     28  26  24     1.381587698882   121.27009495     0.03824279
 C     21  19  18     1.393165518210   116.92959210     0.37292281
 C     31  21  19     1.382114230839   122.07041302     0.30999521
 C     13  11  10     1.395207076137   116.51621465     0.24619075
 F     33  13  11     1.336177808557   119.18652579   178.83454375
 C     33  13  11     1.380570364950   122.40354939     0.52464709
 C      8   6   5     1.395345068819   115.30165164     0.27877959
 F     36   8   6     1.346148631264   118.93481685   178.71451861
 C     36   8   6     1.380027268789   122.97993019     0.31433775
 H      1   2   3     1.087644529629   110.62456105    59.96130528
 H      1   2   3     1.087020076936   110.39072871   179.92116610
 H      1   2   3     1.087631216888   110.63135904   299.87875557
 H      2   1   3     1.091805632256   109.71568633   120.94708274
 H      2   1   3     1.091806225720   109.70492289   239.05886709
 H      3   2   1     1.091042207468   108.99340019    59.00396822
 H      3   2   1     1.091037038265   109.00136484   300.83842601
 H      5   4   3     1.078626431605   120.96704457   357.84081017
 H     10   9   8     1.078029847958   121.36212004   359.86523746
 H     18  17  16     1.077833458276   120.20955799     2.59128223
 H     23  22  21     1.078069597892   121.07252916   358.29305542
 H     30  28  26     1.077762501890   118.54560794   180.33118565
 H     31  21  19     1.078728696656   118.86950949   178.73811505
 H     32  31  21     1.077100311974   120.05138927   179.62179265
 H     35  33  13     1.077988170016   118.96962831   179.69339987
 H     38  36   8     1.078619447750   118.91937524   179.26707703

---------------------------
INTERNAL COORDINATES (A.U.)
---------------------------
 C      0   0   0     0.000000000000     0.00000000     0.00000000
 C      1   0   0     2.877346023643     0.00000000     0.00000000
 C      2   1   0     2.901457000641   111.42678056     0.00000000
 C      3   2   1     2.828507888235   110.45321934   179.91977483
 C      4   3   2     2.625298288526   120.73657191   271.09444300
 C      5   4   3     2.607937525486   120.11279294   178.00779277
 F      6   5   4     2.543631341692   118.05857381   180.64444649
 C      6   5   4     2.636744360273   122.98157921   359.28612991
 C      8   6   5     2.779566508807   122.36016925   180.26500122
 C      9   8   6     2.631772310010   120.29693530   314.82707582
 C     10   9   8     2.607967582510   119.66671267   180.25744209
 F     11  10   9     2.531812165551   118.14622746   180.65752150
 C     11  10   9     2.635567839509   122.39326890   359.35582612
 C     13  11  10     2.821283532855   122.63680333   182.18750800
 O     14  13  11     2.264564646175   124.44829591   138.21045501
 O     14  13  11     2.540165191518   109.60490462   319.11816600
 C     16  14  13     2.604277829685   122.97141882   178.41006612
 C     17  16  14     2.627540199158   115.30987960   208.79726912
 C     18  17  16     2.605314912212   119.10636379   182.26143565
 F     19  18  17     2.544177199305   117.81741296   180.99806041
 C     19  18  17     2.636841186084   122.35756500   359.47103603
 C     21  19  18     2.779542701853   122.11073908   180.60590118
 C     22  21  19     2.632269616567   119.77107229   137.93757399
 C     23  22  21     2.609657818752   120.11644283   179.68276507
 F     24  23  22     2.532832090099   119.37020122   179.69802952
 C     24  23  22     2.628432437442   121.17395484   359.67783234
 F     26  24  23     2.528909153462   120.86887625   180.23293406
 C     26  24  23     2.628294508833   118.20166854     0.21571163
 F     28  26  24     2.531173262518   119.34072694   180.41338837
 C     28  26  24     2.610822380882   121.27009495     0.03824279
 C     21  19  18     2.632701288639   116.92959210     0.37292281
 C     31  21  19     2.611817382080   122.07041302     0.30999521
 C     13  11  10     2.636559274008   116.51621465     0.24619075
 F     33  13  11     2.525010124396   119.18652579   178.83454375
 C     33  13  11     2.608899898363   122.40354939     0.52464709
 C      8   6   5     2.636820042385   115.30165164     0.27877959
 F     36   8   6     2.543852248642   118.93481685   178.71451861
 C     36   8   6     2.607873595355   122.97993019     0.31433775
 H      1   2   3     2.055350292056   110.62456105    59.96130528
 H      1   2   3     2.054170247483   110.39072871   179.92116610
 H      1   2   3     2.055325134622   110.63135904   299.87875557
 H      2   1   3     2.063213636436   109.71568633   120.94708274
 H      2   1   3     2.063214757921   109.70492289   239.05886709
 H      3   2   1     2.061770972663   108.99340019    59.00396822
 H      3   2   1     2.061761204285   109.00136484   300.83842601
 H      5   4   3     2.038308556542   120.96704457   357.84081017
 H     10   9   8     2.037181176834   121.36212004   359.86523746
 H     18  17  16     2.036810054120   120.20955799     2.59128223
 H     23  22  21     2.037256293322   121.07252916   358.29305542
 H     30  28  26     2.036675965981   118.54560794   180.33118565
 H     31  21  19     2.038501809481   118.86950949   178.73811505
 H     32  31  21     2.035424608392   120.05138927   179.62179265
 H     35  33  13     2.037102416938   118.96962831   179.69339987
 H     38  36   8     2.038295358970   118.91937524   179.26707703

---------------------
BASIS SET INFORMATION
---------------------
There are 4 groups of distinct atoms

 Group   1 Type C   : 6s6p2d contracted to 2s2p1d pattern {42/42/2}
 Group   2 Type F   : 6s6p2d contracted to 2s2p1d pattern {42/42/2}
 Group   3 Type O   : 6s6p2d contracted to 2s2p1d pattern {42/42/2}
 Group   4 Type H   : 8s2p contracted to 2s1p pattern {53/2}

Atom   0C    basis set group =>   1
Atom   1C    basis set group =>   1
Atom   2C    basis set group =>   1
Atom   3C    basis set group =>   1
Atom   4C    basis set group =>   1
Atom   5C    basis set group =>   1
Atom   6F    basis set group =>   2
Atom   7C    basis set group =>   1
Atom   8C    basis set group =>   1
Atom   9C    basis set group =>   1
Atom  10C    basis set group =>   1
Atom  11F    basis set group =>   2
Atom  12C    basis set group =>   1
Atom  13C    basis set group =>   1
Atom  14O    basis set group =>   3
Atom  15O    basis set group =>   3
Atom  16C    basis set group =>   1
Atom  17C    basis set group =>   1
Atom  18C    basis set group =>   1
Atom  19F    basis set group =>   2
Atom  20C    basis set group =>   1
Atom  21C    basis set group =>   1
Atom  22C    basis set group =>   1
Atom  23C    basis set group =>   1
Atom  24F    basis set group =>   2
Atom  25C    basis set group =>   1
Atom  26F    basis set group =>   2
Atom  27C    basis set group =>   1
Atom  28F    basis set group =>   2
Atom  29C    basis set group =>   1
Atom  30C    basis set group =>   1
Atom  31C    basis set group =>   1
Atom  32C    basis set group =>   1
Atom  33F    basis set group =>   2
Atom  34C    basis set group =>   1
Atom  35C    basis set group =>   1
Atom  36F    basis set group =>   2
Atom  37C    basis set group =>   1
Atom  38H    basis set group =>   4
Atom  39H    basis set group =>   4
Atom  40H    basis set group =>   4
Atom  41H    basis set group =>   4
Atom  42H    basis set group =>   4
Atom  43H    basis set group =>   4
Atom  44H    basis set group =>   4
Atom  45H    basis set group =>   4
Atom  46H    basis set group =>   4
Atom  47H    basis set group =>   4
Atom  48H    basis set group =>   4
Atom  49H    basis set group =>   4
Atom  50H    basis set group =>   4
Atom  51H    basis set group =>   4
Atom  52H    basis set group =>   4
Atom  53H    basis set group =>   4
---------------------------------
AUXILIARY/J BASIS SET INFORMATION
---------------------------------
There are 4 groups of distinct atoms

 Group   1 Type C   : 12s5p4d2f1g contracted to 6s4p3d1f1g pattern {711111/2111/211/2/1}
 Group   2 Type F   : 12s5p4d2f1g contracted to 6s4p3d1f1g pattern {711111/2111/211/2/1}
 Group   3 Type O   : 12s5p4d2f1g contracted to 6s4p3d1f1g pattern {711111/2111/211/2/1}
 Group   4 Type H   : 5s2p1d contracted to 3s1p1d pattern {311/2/1}

Atom   0C    basis set group =>   1
Atom   1C    basis set group =>   1
Atom   2C    basis set group =>   1
Atom   3C    basis set group =>   1
Atom   4C    basis set group =>   1
Atom   5C    basis set group =>   1
Atom   6F    basis set group =>   2
Atom   7C    basis set group =>   1
Atom   8C    basis set group =>   1
Atom   9C    basis set group =>   1
Atom  10C    basis set group =>   1
Atom  11F    basis set group =>   2
Atom  12C    basis set group =>   1
Atom  13C    basis set group =>   1
Atom  14O    basis set group =>   3
Atom  15O    basis set group =>   3
Atom  16C    basis set group =>   1
Atom  17C    basis set group =>   1
Atom  18C    basis set group =>   1
Atom  19F    basis set group =>   2
Atom  20C    basis set group =>   1
Atom  21C    basis set group =>   1
Atom  22C    basis set group =>   1
Atom  23C    basis set group =>   1
Atom  24F    basis set group =>   2
Atom  25C    basis set group =>   1
Atom  26F    basis set group =>   2
Atom  27C    basis set group =>   1
Atom  28F    basis set group =>   2
Atom  29C    basis set group =>   1
Atom  30C    basis set group =>   1
Atom  31C    basis set group =>   1
Atom  32C    basis set group =>   1
Atom  33F    basis set group =>   2
Atom  34C    basis set group =>   1
Atom  35C    basis set group =>   1
Atom  36F    basis set group =>   2
Atom  37C    basis set group =>   1
Atom  38H    basis set group =>   4
Atom  39H    basis set group =>   4
Atom  40H    basis set group =>   4
Atom  41H    basis set group =>   4
Atom  42H    basis set group =>   4
Atom  43H    basis set group =>   4
Atom  44H    basis set group =>   4
Atom  45H    basis set group =>   4
Atom  46H    basis set group =>   4
Atom  47H    basis set group =>   4
Atom  48H    basis set group =>   4
Atom  49H    basis set group =>   4
Atom  50H    basis set group =>   4
Atom  51H    basis set group =>   4
Atom  52H    basis set group =>   4
Atom  53H    basis set group =>   4
-------------------------
ECP PARAMETER INFORMATION
-------------------------

 Group 1, Type C  ECP vDZP-ECP (replacing 2 core electrons, lmax=3)
 Group 2, Type F  ECP vDZP-ECP (replacing 2 core electrons, lmax=3)
 Group 3, Type O  ECP vDZP-ECP (replacing 2 core electrons, lmax=3)

Atom   0C    ECP group =>   1
Atom   1C    ECP group =>   1
Atom   2C    ECP group =>   1
Atom   3C    ECP group =>   1
Atom   4C    ECP group =>   1
Atom   5C    ECP group =>   1
Atom   6F    ECP group =>   2
Atom   7C    ECP group =>   1
Atom   8C    ECP group =>   1
Atom   9C    ECP group =>   1
Atom  10C    ECP group =>   1
Atom  11F    ECP group =>   2
Atom  12C    ECP group =>   1
Atom  13C    ECP group =>   1
Atom  14O    ECP group =>   3
Atom  15O    ECP group =>   3
Atom  16C    ECP group =>   1
Atom  17C    ECP group =>   1
Atom  18C    ECP group =>   1
Atom  19F    ECP group =>   2
Atom  20C    ECP group =>   1
Atom  21C    ECP group =>   1
Atom  22C    ECP group =>   1
Atom  23C    ECP group =>   1
Atom  24F    ECP group =>   2
Atom  25C    ECP group =>   1
Atom  26F    ECP group =>   2
Atom  27C    ECP group =>   1
Atom  28F    ECP group =>   2
Atom  29C    ECP group =>   1
Atom  30C    ECP group =>   1
Atom  31C    ECP group =>   1
Atom  32C    ECP group =>   1
Atom  33F    ECP group =>   2
Atom  34C    ECP group =>   1
Atom  35C    ECP group =>   1
Atom  36F    ECP group =>   2
Atom  37C    ECP group =>   1



           ************************************************************
           *        Program running with 4 parallel MPI-processes     *
           *              working on a common directory               *
           ************************************************************
------------------------------------------------------------------------------
                             ORCA STARTUP CALCULATIONS
                           -- RI-GTO INTEGRALS CHOSEN --
------------------------------------------------------------------------------
------------------------------------------------------------------------------
                   ___                                                        
                  /   \      - P O W E R E D   B Y -                         
                 /     \                                                     
                 |  |  |   _    _      __       _____    __    __             
                 |  |  |  | |  | |    /  \     |  _  \  |  |  /  |          
                  \  \/   | |  | |   /    \    | | | |  |  | /  /          
                 / \  \   | |__| |  /  /\  \   | |_| |  |  |/  /          
                |  |  |   |  __  | /  /__\  \  |    /   |      \           
                |  |  |   | |  | | |   __   |  |    \   |  |\   \          
                \     /   | |  | | |  |  |  |  | |\  \  |  | \   \       
                 \___/    |_|  |_| |__|  |__|  |_| \__\ |__|  \__/        
                                                                              
                      - O R C A' S   B I G   F R I E N D -                    
                                      &                                       
                       - I N T E G R A L  F E E D E R -                       
                                                                              
 v1 FN, 2020, v2 2021, v3 2022-2024                                           
------------------------------------------------------------------------------


----------------------
SHARK INTEGRAL PACKAGE
----------------------

Number of atoms                             ...     54
Number of basis functions                   ...    574
Number of shells                            ...    238
Maximum angular momentum                    ...      2
Integral batch strategy                     ... SHARK/LIBINT Hybrid
RI-J (if used) integral strategy            ... SPLIT-RIJ (Revised 2003 algorithm where possible)
Printlevel                                  ...      1
Contraction scheme used                     ... SEGMENTED contraction
Prescreening option                         ... SCHWARTZ
   Thresh                                   ... 1.000e-10
   Tcut                                     ... 1.000e-11
   Tpresel                                  ... 1.000e-11 
Coulomb Range Separation                    ... NOT USED
Exchange Range Separation                   ... Long Range
   Mu parameter                             ... 3.000e-01
   Scaling (regular/separated)              ... 1.670e-01 8.330e-01
Robust (split-)RI terms used:
  metric    (central integrals)             ... YES
  density   (r.h.s.  integrals)             ... YES
  potential (l.h.s.  integrals)             ... YES
Multipole approximations                    ... NOT USED
Finite Nucleus Model                        ... NOT USED
CABS basis                                  ... NOT available
Auxiliary Coulomb fitting basis             ... AVAILABLE
   # of basis functions in Aux-J            ...   2038
   # of shells in Aux-J                     ...    650
   Maximum angular momentum in Aux-J        ...      4
Auxiliary J/K fitting basis                 ... NOT available
Auxiliary Correlation fitting basis         ... NOT available
Auxiliary 'external' fitting basis          ... NOT available

done (  0.0 sec) Dimension = 238
   => SHARK Basis and OBASIS are compatible. Storing Pre-screening
Shell pair information
Shell pair cut-off parameter TPreSel        ...   1.0e-11
Total number of shell pairs                 ...     28441
Shell pairs after pre-screening             ...     18292
Total number of primitive shell pairs       ...    240572
Primitive shell pairs kept                  ...    101237
          la=0 lb=0:   3874 shell pairs
          la=1 lb=0:   6523 shell pairs
          la=1 lb=1:   2830 shell pairs
          la=2 lb=0:   2520 shell pairs
          la=2 lb=1:   2127 shell pairs
          la=2 lb=2:    418 shell pairs

Checking whether 4 symmetric matrices of dimension 574 fit in memory
:Max Core in MB      =   4000.00
 MB in use           =     36.67
 MB left             =   3963.33
 MB needed           =      5.04
 Data fit in memory  = YES
done (  0.4 sec)
Calculating Nuclear repulsion               ... done (  0.0 sec) ENN=   1923.066281234382 Eh

Diagonalization of the overlap matrix:
Smallest eigenvalue                        ... 2.255e-04
Time for diagonalization                   ...    0.062 sec
Threshold for overlap eigenvalues          ... 1.000e-07
Number of eigenvalues below threshold      ... 0
Time for construction of square roots      ...    0.035 sec
Total time needed                          ...    0.106 sec

-------------------
DFT GRID GENERATION
-------------------

General Integration Accuracy     IntAcc      ... 4.388
Radial Grid Type                 RadialGrid  ... OptM3 with GC (2021)
Angular Grid (max. ang.)         AngularGrid ... 4 (Lebedev-302)
Angular grid pruning method      GridPruning ... 4 (adaptive)
Weight generation scheme         WeightScheme... mBecke (2022)
Basis function cutoff            BFCut       ... 1.0000e-10
Integration weight cutoff        WCut        ... 1.0000e-14
Partially contracted basis set               ... off
Rotationally invariant grid construction     ... off
Angular grids for H and He will be reduced by one unit

Total number of grid points                  ...   278794
Total number of batches                      ...     4383
Average number of points per batch           ...       63
Average number of grid points per atom       ...     5163

--------------------
COSX GRID GENERATION
--------------------

GRIDX 1
-------
General Integration Accuracy     IntAcc      ... 3.816
Radial Grid Type                 RadialGrid  ... OptM3 with GC (2021)
Angular Grid (max. ang.)         AngularGrid ... 1 (Lebedev-50)
Angular grid pruning method      GridPruning ... 4 (adaptive)
Weight generation scheme         WeightScheme... mBecke (2022)
Basis function cutoff            BFCut       ... 1.0000e-10
Integration weight cutoff        WCut        ... 1.0000e-14
Partially contracted basis set               ... on
Rotationally invariant grid construction     ... off
Angular grids for H and He will be reduced by one unit

Total number of grid points                  ...    35322
Total number of batches                      ...      305
Average number of points per batch           ...      115
Average number of grid points per atom       ...      654
UseSFitting                                  ... on

GRIDX 2
-------
General Integration Accuracy     IntAcc      ... 4.020
Radial Grid Type                 RadialGrid  ... OptM3 with GC (2021)
Angular Grid (max. ang.)         AngularGrid ... 2 (Lebedev-110)
Angular grid pruning method      GridPruning ... 4 (adaptive)
Weight generation scheme         WeightScheme... mBecke (2022)
Basis function cutoff            BFCut       ... 1.0000e-10
Integration weight cutoff        WCut        ... 1.0000e-14
Partially contracted basis set               ... on
Rotationally invariant grid construction     ... off
Angular grids for H and He will be reduced by one unit

Total number of grid points                  ...    79119
Total number of batches                      ...      642
Average number of points per batch           ...      123
Average number of grid points per atom       ...     1465
UseSFitting                                  ... on

GRIDX 3
-------
General Integration Accuracy     IntAcc      ... 4.338
Radial Grid Type                 RadialGrid  ... OptM3 with GC (2021)
Angular Grid (max. ang.)         AngularGrid ... 3 (Lebedev-194)
Angular grid pruning method      GridPruning ... 4 (adaptive)
Weight generation scheme         WeightScheme... mBecke (2022)
Basis function cutoff            BFCut       ... 1.0000e-10
Integration weight cutoff        WCut        ... 1.0000e-14
Partially contracted basis set               ... on
Rotationally invariant grid construction     ... off
Angular grids for H and He will be reduced by one unit

Total number of grid points                  ...   173731
Total number of batches                      ...     1382
Average number of points per batch           ...      125
Average number of grid points per atom       ...     3217
UseSFitting                                  ... on
Grids setup in   6.9 sec
Initializing property integral containers    ... done (  0.0 sec)

SHARK setup successfully completed in  10.0 seconds

Maximum memory used throughout the entire STARTUP-calculation: 100.9 MB


           ************************************************************
           *        Program running with 4 parallel MPI-processes     *
           *              working on a common directory               *
           ************************************************************
-------------------------------------------------------------------------------
                                 ORCA GUESS
                   Start orbitals & Density for SCF / CASSCF
-------------------------------------------------------------------------------

------------
SCF SETTINGS
------------
Hamiltonian:
 Density Functional     Method          .... DFT(GTOs)
 Exchange Functional    Exchange        .... WB97X-V
 Correlation Functional Correlation     .... WB97X-V
 Gradients option       PostSCFGGA      .... off
 Hybrid DFT is turned on
   Fraction HF Exchange ScalHFX         ....  0.167000
   Scaling of DF-GGA-X  ScalDFX         ....  0.000000
   Scaling of DF-GGA-C  ScalDFC         ....  1.000000
   Scaling of DF-LDA-C  ScalLDAC        ....  1.000000
   Perturbative correction              ....  0.000000
 Long-range corrected/Screened/Range-Separated Hybrid DFT is turned on
   Amount of maximum screened exact exchange              ....  0.833000
   Range separation parameter mu (erf(mu*r12)/r12)        ....  0.300000
   NL short-range parameter             ....  6.000000
   NL long-range parameter              ....  0.010000
 RI-approximation to the Coulomb term is turned on
   Number of AuxJ basis functions       .... 2038
   RIJ-COSX (HFX calculated with COS-X)).... on


General Settings:
 Integral files         IntName         .... conf_008
 Hartree-Fock type      HFTyp           .... RHF
 Total Charge           Charge          ....    0
 Multiplicity           Mult            ....    1
 Number of Electrons    NEL             ....  196
 Basis Dimension        Dim             ....  574
 Nuclear Repulsion      ENuc            ....   1923.0662812344 Eh

Convergence Acceleration:
 AO-DIIS                CNVDIIS         .... on
   Start iteration      DIISMaxIt       ....    12
   Startup error        DIISStart       ....  0.200000
   # of expansion vecs  DIISMaxEq       ....     5
   Bias factor          DIISBfac        ....   1.050
   Max. coefficient     DIISMaxC        ....  10.000
 MO-DIIS                CNVKDIIS        .... off
 Trust-Rad. Augm. Hess. CNVTRAH         .... auto
   Auto Start mean grad. ratio tolernc. ....  1.125000
   Auto Start start iteration           ....    50
   Auto Start num. interpolation iter.  ....    10
   Max. Number of Micro iterations      ....    24
   Max. Number of Macro iterations      .... Maxiter - #DIIS iter
   Number of Davidson start vectors     ....     2
   Converg. threshold    (grad. norm)   ....   5.000e-05
   Grad. Scal. Fac. for Micro threshold ....   0.100
   Minimum threshold for Micro iter.    ....   1.000e-02
   NR start threshold (gradient norm)   ....   1.000e-04
   Initial trust radius                 ....   0.400
   Minimum AH scaling param. (alpha)    ....   1.000
   Maximum AH scaling param. (alpha)    .... 1000.000
   Quad. conv. algorithm                .... NR
   White noise on init. David. guess    .... on
   Maximum white noise                  ....   0.010
   Pseudo random numbers                .... off
   Inactive MOs                         .... canonical
   Orbital update algorithm             .... Taylor
   Preconditioner                       .... Diag
   Full preconditioner red. dimension   ....   250
 SOSCF                 CNVSOSCF           .... on
   Start iteration     SOSCFMaxIt         ....   150
   Startup grad/error  SOSCFStart         ....  0.003300
   Hessian update      SOSCFHessUp        .... L-BFGS
   Autom. constraints  SOSCFAutoConstrain .... off
 Level Shifting         CNVShift        .... on
   Level shift para.    LevelShift      ....    0.2500
   Turn off err/grad.   ShiftErr        ....    0.0010
 Zerner damping         CNVZerner       .... off
 Static damping         CNVDamp         .... on
   Fraction old density DampFac         ....    0.7000
   Max. Damping (<1)    DampMax         ....    0.9800
   Min. Damping (>=0)   DampMin         ....    0.0000
   Turn off err/grad.   DampErr         ....    0.1000

SCF Procedure:
 Maximum # iterations   MaxIter         ....   125
 SCF integral mode      SCFMode         .... Direct
   Integral package                     .... SHARK and LIBINT hybrid scheme
 Reset frequency        DirectResetFreq ....    20
 Integral Threshold     Thresh          ....  1.000e-10 Eh
 Primitive CutOff       TCut            ....  1.000e-11 Eh

Convergence Tolerance:
 Convergence Check Mode ConvCheckMode   .... Total+1el-Energy
 Convergence forced     ConvForced      .... 0
 Energy Change          TolE            ....  1.000e-06 Eh
 1-El. energy change                    ....  1.000e-03 Eh
 Orbital Gradient       TolG            ....  5.000e-05
 Orbital Rotation angle TolX            ....  5.000e-05
 DIIS Error             TolErr          ....  1.000e-06

------------------------------
INITIAL GUESS: MODEL POTENTIAL
------------------------------
Loading Hartree-Fock densities                     ... done
Atomic calculation to generate a density for atom 0 (C  with ECP)
  Multiplicity assumed   :    1
  Atomic configuration   : 1s2 2s2 2p2 
  Number of open shells  : 1
  Command: /opt/apps/pkg/applications/orca/orca_6_1_0_linux_x86-64_shared_openmpi418/orca conf_008_atom6.inp "" > conf_008_atom6.out
Returned from the atomic calculation with res=0
Atomic calculation to generate a density for atom 6 (F  with ECP)
  Multiplicity assumed   :    2
  Atomic configuration   : 1s2 2s2 2p5 
  Number of open shells  : 1
  Command: /opt/apps/pkg/applications/orca/orca_6_1_0_linux_x86-64_shared_openmpi418/orca conf_008_atom9.inp "" > conf_008_atom9.out
Returned from the atomic calculation with res=0
Atomic calculation to generate a density for atom 14 (O  with ECP)
  Multiplicity assumed   :    3
  Atomic configuration   : 1s2 2s2 2p4 
  Number of open shells  : 1
  Command: /opt/apps/pkg/applications/orca/orca_6_1_0_linux_x86-64_shared_openmpi418/orca conf_008_atom8.inp "" > conf_008_atom8.out
Returned from the atomic calculation with res=0
Calculating cut-offs                               ... done
Initializing the effective Hamiltonian             ... done
Setting up the integral package (SHARK)            ... done
done (   1.9 sec)
done (   0.9 sec)
Mapping shells                                     ... done
Starting the XC term evaluation                    ... done (   0.6 sec)
  promolecular density results
     # of electrons  =    271.988119020
     EX              =   -168.150050131
     EC              =    -11.744402699
     EX+EC           =   -179.894452830
Transforming the Hamiltonian                       ... done (   0.0 sec)
done (   0.1 sec)
Back transforming the eigenvectors                 ... done (   0.0 sec)
done
                      ------------------
                      INITIAL GUESS DONE (   5.0 sec)
                      ------------------
             **** ENERGY FILE WAS UPDATED (conf_008.en.tmp) ****
Finished Guess after   6.8 sec
Maximum memory used throughout the entire GUESS-calculation: 55.2 MB


           ************************************************************
           *        Program running with 4 parallel MPI-processes     *
           *              working on a common directory               *
           ************************************************************

-------------------------------------------------------------------------------------------
                                      ORCA LEAN-SCF
                              memory conserving SCF solver
-------------------------------------------------------------------------------------------

----------------------------------------D-I-I-S--------------------------------------------
Iteration    Energy (Eh)           Delta-E    RMSDP     MaxDP     DIISErr   Damp  Time(sec)
-------------------------------------------------------------------------------------------
               ***  Starting incremental Fock matrix formation  ***
    1    -394.3762353948220607     0.00e+00  5.84e-03  9.42e-02  2.26e-01  0.700  83.6
    2    -394.9461140186551802    -5.70e-01  4.23e-03  6.69e-02  1.13e-01  0.700  33.5
                               ***Turning on AO-DIIS***
    3    -395.2106415581786223    -2.65e-01  2.44e-03  3.46e-02  5.95e-02  0.700  35.4
    4    -395.3676372250999975    -1.57e-01  5.37e-03  7.25e-02  3.44e-02  0.000  31.3
    5    -395.7095105411451641    -3.42e-01  4.50e-04  6.84e-03  7.26e-03  0.000  33.9
    6    -395.7113239593575145    -1.81e-03  2.33e-04  5.00e-03  3.63e-03  0.000  27.8
                              *** Initializing SOSCF ***
---------------------------------------S-O-S-C-F--------------------------------------
Iteration    Energy (Eh)           Delta-E    RMSDP     MaxDP     MaxGrad    Time(sec)
--------------------------------------------------------------------------------------
    7    -395.7118319702328790    -5.08e-04  1.21e-04  3.60e-03  2.87e-03    25.9
               *** Restarting incremental Fock matrix formation ***
    8    -395.7119861566150121    -1.54e-04  8.00e-05  1.78e-03  1.23e-03    78.6
    9    -395.7120371747598710    -5.10e-05  9.40e-05  2.91e-03  5.86e-04    48.9
   10    -395.7120510380661926    -1.39e-05  3.05e-05  1.46e-03  2.70e-04    48.5
   11    -395.7120566820660770    -5.64e-06  1.10e-05  2.72e-04  4.71e-05    41.7
   12    -395.7120568699708656    -1.88e-07  4.98e-06  9.12e-05  4.53e-05    32.4
                 **** Energy Check signals convergence ****

               *****************************************************
               *                     SUCCESS                       *
               *           SCF CONVERGED AFTER  12 CYCLES          *
               *****************************************************

 done (  151.432 sec)
Old exchange energy                            :    -40.322457173 Eh
New exchange energy                            :    -40.322537317 Eh
Exchange energy change after final integration :     -0.000080144 Eh
Total energy after final integration           :   -395.712137297 Eh
             **** ENERGY FILE WAS UPDATED (conf_008.en.tmp) ****

----------------
TOTAL SCF ENERGY
----------------

Total Energy       :       -395.71213729667528 Eh          -10767.87468 eV

Components:
Nuclear Repulsion  :       1923.06628123438236 Eh           52329.29388 eV
Electronic Energy  :      -2318.77833838687638 Eh          -63097.16639 eV
One Electron Energy:      -4462.19934688807098 Eh         -121422.61724 eV
Two Electron Energy:       2143.42100850119459 Eh           58325.45085 eV

Virial components:
Potential Energy   :       -709.37628847641065 Eh          -19303.11016 eV
Kinetic Energy     :        313.66415117973537 Eh            8535.23548 eV
Virial Ratio       :          2.26157909920004

DFT components:
N(Alpha)           :       98.000020445094 electrons
N(Beta)            :       98.000020445094 electrons
N(Total)           :      196.000040890188 electrons
E(X)               :      -51.261432511349 Eh       
E(C)               :       -7.927552821999 Eh       
E(XC)              :      -59.188985333348 Eh       

---------------
SCF CONVERGENCE
---------------

  Last Energy change         ...    1.8790e-07  Tolerance :   1.0000e-06
  Last MAX-Density change    ...    9.1223e-05  Tolerance :   1.0000e-05
  Last RMS-Density change    ...    4.9849e-06  Tolerance :   1.0000e-06
  Last DIIS Error            ...    2.8728e-03  Tolerance :   1.0000e-06
  Last Orbital Gradient      ...    4.5281e-05  Tolerance :   5.0000e-05
  Last Orbital Rotation      ...    1.7792e-04  Tolerance :   5.0000e-05


----------------
ORBITAL ENERGIES
----------------

  NO   OCC          E(Eh)            E(eV) 
   0   2.0000      -1.387389       -37.7528 
   1   2.0000      -1.382451       -37.6184 
   2   2.0000      -1.380232       -37.5580 
   3   2.0000      -1.380013       -37.5521 
   4   2.0000      -1.379462       -37.5371 
   5   2.0000      -1.376335       -37.4520 
   6   2.0000      -1.372488       -37.3473 
   7   2.0000      -1.367032       -37.1988 
   8   2.0000      -1.278434       -34.7879 
   9   2.0000      -1.183786       -32.2125 
  10   2.0000      -1.060189       -28.8492 
  11   2.0000      -1.052868       -28.6500 
  12   2.0000      -1.041912       -28.3519 
  13   2.0000      -1.030402       -28.0387 
  14   2.0000      -0.985460       -26.8157 
  15   2.0000      -0.963067       -26.2064 
  16   2.0000      -0.949559       -25.8388 
  17   2.0000      -0.922192       -25.0941 
  18   2.0000      -0.921274       -25.0692 
  19   2.0000      -0.918468       -24.9928 
  20   2.0000      -0.917300       -24.9610 
  21   2.0000      -0.915909       -24.9231 
  22   2.0000      -0.898441       -24.4478 
  23   2.0000      -0.857726       -23.3399 
  24   2.0000      -0.833915       -22.6920 
  25   2.0000      -0.799512       -21.7558 
  26   2.0000      -0.797283       -21.6952 
  27   2.0000      -0.793696       -21.5976 
  28   2.0000      -0.778652       -21.1882 
  29   2.0000      -0.777219       -21.1492 
  30   2.0000      -0.772251       -21.0140 
  31   2.0000      -0.761741       -20.7280 
  32   2.0000      -0.737673       -20.0731 
  33   2.0000      -0.736741       -20.0478 
  34   2.0000      -0.713664       -19.4198 
  35   2.0000      -0.710132       -19.3237 
  36   2.0000      -0.693763       -18.8782 
  37   2.0000      -0.690563       -18.7912 
  38   2.0000      -0.687447       -18.7064 
  39   2.0000      -0.684469       -18.6254 
  40   2.0000      -0.680254       -18.5106 
  41   2.0000      -0.669953       -18.2303 
  42   2.0000      -0.654239       -17.8027 
  43   2.0000      -0.644312       -17.5326 
  44   2.0000      -0.642514       -17.4837 
  45   2.0000      -0.639816       -17.4103 
  46   2.0000      -0.639569       -17.4036 
  47   2.0000      -0.638273       -17.3683 
  48   2.0000      -0.634758       -17.2726 
  49   2.0000      -0.632917       -17.2225 
  50   2.0000      -0.628448       -17.1010 
  51   2.0000      -0.618273       -16.8241 
  52   2.0000      -0.616503       -16.7759 
  53   2.0000      -0.614540       -16.7225 
  54   2.0000      -0.610403       -16.6099 
  55   2.0000      -0.607399       -16.5282 
  56   2.0000      -0.606005       -16.4902 
  57   2.0000      -0.603670       -16.4267 
  58   2.0000      -0.597669       -16.2634 
  59   2.0000      -0.595236       -16.1972 
  60   2.0000      -0.594121       -16.1668 
  61   2.0000      -0.588351       -16.0098 
  62   2.0000      -0.585386       -15.9292 
  63   2.0000      -0.579780       -15.7766 
  64   2.0000      -0.574661       -15.6373 
  65   2.0000      -0.567819       -15.4512 
  66   2.0000      -0.563753       -15.3405 
  67   2.0000      -0.552153       -15.0248 
  68   2.0000      -0.542581       -14.7644 
  69   2.0000      -0.540316       -14.7028 
  70   2.0000      -0.537074       -14.6145 
  71   2.0000      -0.536202       -14.5908 
  72   2.0000      -0.533026       -14.5044 
  73   2.0000      -0.526858       -14.3365 
  74   2.0000      -0.519806       -14.1446 
  75   2.0000      -0.515569       -14.0293 
  76   2.0000      -0.509692       -13.8694 
  77   2.0000      -0.507350       -13.8057 
  78   2.0000      -0.502576       -13.6758 
  79   2.0000      -0.502389       -13.6707 
  80   2.0000      -0.499616       -13.5952 
  81   2.0000      -0.497761       -13.5448 
  82   2.0000      -0.489917       -13.3313 
  83   2.0000      -0.488640       -13.2966 
  84   2.0000      -0.481538       -13.1033 
  85   2.0000      -0.468491       -12.7483 
  86   2.0000      -0.463692       -12.6177 
  87   2.0000      -0.460465       -12.5299 
  88   2.0000      -0.459047       -12.4913 
  89   2.0000      -0.422620       -11.5001 
  90   2.0000      -0.401329       -10.9207 
  91   2.0000      -0.388568       -10.5735 
  92   2.0000      -0.370884       -10.0923 
  93   2.0000      -0.369845       -10.0640 
  94   2.0000      -0.369335       -10.0501 
  95   2.0000      -0.368090       -10.0162 
  96   2.0000      -0.351580        -9.5670 
  97   2.0000      -0.336370        -9.1531 
  98   0.0000      -0.010294        -0.2801 
  99   0.0000       0.016482         0.4485 
 100   0.0000       0.046707         1.2709 
 101   0.0000       0.046824         1.2741 
 102   0.0000       0.048493         1.3196 
 103   0.0000       0.048979         1.3328 
 104   0.0000       0.049644         1.3509 
 105   0.0000       0.073291         1.9943 
 106   0.0000       0.078308         2.1309 
 107   0.0000       0.083993         2.2856 
 108   0.0000       0.086266         2.3474 
*Only the first 10 virtual orbitals were printed.

                    ********************************
                    * MULLIKEN POPULATION ANALYSIS *
                    ********************************

-----------------------
MULLIKEN ATOMIC CHARGES
-----------------------
   0 C :   -0.064771
   1 C :   -0.064428
   2 C :   -0.043538
   3 C :   -0.041774
   4 C :    0.036896
   5 C :    0.198793
   6 F :   -0.227317
   7 C :   -0.129223
   8 C :   -0.085725
   9 C :    0.069869
  10 C :    0.242314
  11 F :   -0.215642
  12 C :   -0.157197
  13 C :    0.284644
  14 O :   -0.278856
  15 O :   -0.224433
  16 C :    0.062415
  17 C :    0.055148
  18 C :    0.189927
  19 F :   -0.230493
  20 C :   -0.107576
  21 C :   -0.079215
  22 C :    0.026103
  23 C :    0.174323
  24 F :   -0.216771
  25 C :    0.192657
  26 F :   -0.209462
  27 C :    0.171070
  28 F :   -0.215280
  29 C :    0.060613
  30 C :    0.033966
  31 C :    0.040458
  32 C :    0.226953
  33 F :   -0.205696
  34 C :    0.065117
  35 C :    0.199343
  36 F :   -0.227460
  37 C :    0.036929
  38 H :    0.028825
  39 H :    0.036383
  40 H :    0.028760
  41 H :    0.042879
  42 H :    0.042171
  43 H :    0.043847
  44 H :    0.044131
  45 H :    0.032350
  46 H :    0.049058
  47 H :    0.041567
  48 H :    0.045445
  49 H :    0.047724
  50 H :    0.037756
  51 H :    0.054382
  52 H :    0.049760
  53 H :    0.032279
Sum of atomic charges:   -0.0000000

--------------------------------
MULLIKEN REDUCED ORBITAL CHARGES
--------------------------------
  0 C s       :     0.937835  s :     0.937835
      pz      :     1.042028  p :     3.052662
      px      :     0.961773
      py      :     1.048862
      dz2     :     0.012463  d :     0.074274
      dxz     :     0.011986
      dyz     :     0.017501
      dx2y2   :     0.011698
      dxy     :     0.020626

  1 C s       :     1.007666  s :     1.007666
      pz      :     1.060281  p :     2.955008
      px      :     0.928074
      py      :     0.966652
      dz2     :     0.013887  d :     0.101754
      dxz     :     0.015119
      dyz     :     0.027417
      dx2y2   :     0.021392
      dxy     :     0.023939

  2 C s       :     0.968568  s :     0.968568
      pz      :     1.063410  p :     2.974526
      px      :     0.916074
      py      :     0.995042
      dz2     :     0.014520  d :     0.100444
      dxz     :     0.012700
      dyz     :     0.027264
      dx2y2   :     0.024140
      dxy     :     0.021820

  3 C s       :     1.043351  s :     1.043351
      pz      :     0.968627  p :     2.869441
      px      :     0.973386
      py      :     0.927429
      dz2     :     0.028405  d :     0.128982
      dxz     :     0.036538
      dyz     :     0.027703
      dx2y2   :     0.015912
      dxy     :     0.020424

  4 C s       :     0.960893  s :     0.960893
      pz      :     0.979121  p :     2.915199
      px      :     0.930827
      py      :     1.005251
      dz2     :     0.024814  d :     0.087012
      dxz     :     0.021191
      dyz     :     0.010609
      dx2y2   :     0.013637
      dxy     :     0.016762

  5 C s       :     1.059465  s :     1.059465
      pz      :     0.753707  p :     2.556432
      px      :     0.896086
      py      :     0.906639
      dz2     :     0.045778  d :     0.185311
      dxz     :     0.051909
      dyz     :     0.037660
      dx2y2   :     0.022086
      dxy     :     0.027878

  6 F s       :     1.886032  s :     1.886032
      pz      :     1.603445  p :     5.317658
      px      :     1.810525
      py      :     1.903688
      dz2     :     0.006616  d :     0.023627
      dxz     :     0.007702
      dyz     :     0.005119
      dx2y2   :     0.002048
      dxy     :     0.002143

  7 C s       :     0.989758  s :     0.989758
      pz      :     0.972331  p :     3.028416
      px      :     0.979735
      py      :     1.076350
      dz2     :     0.019758  d :     0.111049
      dxz     :     0.034564
      dyz     :     0.022459
      dx2y2   :     0.015399
      dxy     :     0.018869

  8 C s       :     1.015420  s :     1.015420
      pz      :     0.969848  p :     2.939705
      px      :     0.979520
      py      :     0.990337
      dz2     :     0.027597  d :     0.130601
      dxz     :     0.024985
      dyz     :     0.013876
      dx2y2   :     0.031629
      dxy     :     0.032512

  9 C s       :     0.969417  s :     0.969417
      pz      :     0.985829  p :     2.873758
      px      :     0.891650
      py      :     0.996279
      dz2     :     0.012528  d :     0.086956
      dxz     :     0.020179
      dyz     :     0.012028
      dx2y2   :     0.021479
      dxy     :     0.020742

 10 C s       :     1.058102  s :     1.058102
      pz      :     0.847017  p :     2.511308
      px      :     0.807169
      py      :     0.857122
      dz2     :     0.037165  d :     0.188276
      dxz     :     0.042810
      dyz     :     0.021930
      dx2y2   :     0.043598
      dxy     :     0.042773

 11 F s       :     1.884445  s :     1.884445
      pz      :     1.768453  p :     5.307211
      px      :     1.711354
      py      :     1.827404
      dz2     :     0.004349  d :     0.023987
      dxz     :     0.006507
      dyz     :     0.003526
      dx2y2   :     0.004053
      dxy     :     0.005553

 12 C s       :     1.011102  s :     1.011102
      pz      :     1.105316  p :     3.047167
      px      :     0.924417
      py      :     1.017435
      dz2     :     0.021304  d :     0.098928
      dxz     :     0.020086
      dyz     :     0.010934
      dx2y2   :     0.023004
      dxy     :     0.023600

 13 C s       :     1.078698  s :     1.078698
      pz      :     0.711191  p :     2.356715
      px      :     0.865872
      py      :     0.779651
      dz2     :     0.009922  d :     0.279943
      dxz     :     0.024248
      dyz     :     0.065655
      dx2y2   :     0.076763
      dxy     :     0.103355

 14 O s       :     1.762276  s :     1.762276
      pz      :     1.403477  p :     4.477780
      px      :     1.752745
      py      :     1.321558
      dz2     :     0.003369  d :     0.038800
      dxz     :     0.001132
      dyz     :     0.014156
      dx2y2   :     0.010862
      dxy     :     0.009281

 15 O s       :     1.653091  s :     1.653091
      pz      :     1.750044  p :     4.528499
      px      :     1.228636
      py      :     1.549818
      dz2     :     0.004748  d :     0.042843
      dxz     :     0.007122
      dyz     :     0.005519
      dx2y2   :     0.012282
      dxy     :     0.013171

 16 C s       :     1.041971  s :     1.041971
      pz      :     0.984786  p :     2.724583
      px      :     0.704058
      py      :     1.035739
      dz2     :     0.023262  d :     0.171031
      dxz     :     0.042395
      dyz     :     0.015828
      dx2y2   :     0.045985
      dxy     :     0.043562

 17 C s       :     0.975320  s :     0.975320
      pz      :     0.977124  p :     2.886427
      px      :     0.922073
      py      :     0.987230
      dz2     :     0.009897  d :     0.083105
      dxz     :     0.020475
      dyz     :     0.010199
      dx2y2   :     0.020292
      dxy     :     0.022242

 18 C s       :     1.055966  s :     1.055966
      pz      :     0.878113  p :     2.570107
      px      :     0.888706
      py      :     0.803288
      dz2     :     0.027440  d :     0.184000
      dxz     :     0.037236
      dyz     :     0.024987
      dx2y2   :     0.047031
      dxy     :     0.047305

 19 F s       :     1.886083  s :     1.886083
      pz      :     1.811520  p :     5.320843
      px      :     1.830852
      py      :     1.678471
      dz2     :     0.003889  d :     0.023566
      dxz     :     0.003599
      dyz     :     0.005469
      dx2y2   :     0.004824
      dxy     :     0.005785

 20 C s       :     0.993494  s :     0.993494
      pz      :     1.029960  p :     2.995663
      px      :     0.975524
      py      :     0.990179
      dz2     :     0.017443  d :     0.118419
      dxz     :     0.026767
      dyz     :     0.013590
      dx2y2   :     0.030755
      dxy     :     0.029864

 21 C s       :     0.999354  s :     0.999354
      pz      :     0.975466  p :     2.951523
      px      :     0.983866
      py      :     0.992191
      dz2     :     0.007812  d :     0.128337
      dxz     :     0.022265
      dyz     :     0.024545
      dx2y2   :     0.038544
      dxy     :     0.035171

 22 C s       :     0.969189  s :     0.969189
      pz      :     1.015895  p :     2.915849
      px      :     0.926545
      py      :     0.973409
      dz2     :     0.005526  d :     0.088859
      dxz     :     0.020213
      dyz     :     0.011351
      dx2y2   :     0.027776
      dxy     :     0.023992

 23 C s       :     1.058122  s :     1.058122
      pz      :     0.955024  p :     2.584595
      px      :     0.910334
      py      :     0.719237
      dz2     :     0.010644  d :     0.182961
      dxz     :     0.030713
      dyz     :     0.037451
      dx2y2   :     0.050285
      dxy     :     0.053869

 24 F s       :     1.888273  s :     1.888273
      pz      :     1.901306  p :     5.304626
      px      :     1.841409
      py      :     1.561911
      dz2     :     0.002827  d :     0.023872
      dxz     :     0.001854
      dyz     :     0.005588
      dx2y2   :     0.006319
      dxy     :     0.007285

 25 C s       :     1.045812  s :     1.045812
      pz      :     1.014086  p :     2.586372
      px      :     0.643949
      py      :     0.928337
      dz2     :     0.010012  d :     0.175159
      dxz     :     0.044587
      dyz     :     0.021787
      dx2y2   :     0.040189
      dxy     :     0.058584

 26 F s       :     1.888923  s :     1.888923
      pz      :     1.911816  p :     5.296117
      px      :     1.436700
      py      :     1.947601
      dz2     :     0.002773  d :     0.024422
      dxz     :     0.007401
      dyz     :     0.000052
      dx2y2   :     0.008620
      dxy     :     0.005576

 27 C s       :     1.058157  s :     1.058157
      pz      :     0.955911  p :     2.587415
      px      :     0.894443
      py      :     0.737061
      dz2     :     0.010889  d :     0.183358
      dxz     :     0.031687
      dyz     :     0.036645
      dx2y2   :     0.051801
      dxy     :     0.052336

 28 F s       :     1.887978  s :     1.887978
      pz      :     1.894794  p :     5.303396
      px      :     1.816659
      py      :     1.591943
      dz2     :     0.002894  d :     0.023905
      dxz     :     0.002276
      dyz     :     0.005282
      dx2y2   :     0.005906
      dxy     :     0.007547

 29 C s       :     0.973652  s :     0.973652
      pz      :     0.987354  p :     2.876980
      px      :     0.906694
      py      :     0.982931
      dz2     :     0.005818  d :     0.088756
      dxz     :     0.020519
      dyz     :     0.010830
      dx2y2   :     0.028970
      dxy     :     0.022618

 30 C s       :     0.984685  s :     0.984685
      pz      :     0.965338  p :     2.883363
      px      :     0.964287
      py      :     0.953738
      dz2     :     0.010171  d :     0.097986
      dxz     :     0.024661
      dyz     :     0.010367
      dx2y2   :     0.022127
      dxy     :     0.030659

 31 C s       :     0.971292  s :     0.971292
      pz      :     0.976102  p :     2.897828
      px      :     0.956308
      py      :     0.965419
      dz2     :     0.010672  d :     0.090422
      dxz     :     0.022176
      dyz     :     0.010077
      dx2y2   :     0.019403
      dxy     :     0.028093

 32 C s       :     1.064553  s :     1.064553
      pz      :     0.812026  p :     2.519087
      px      :     0.947085
      py      :     0.759976
      dz2     :     0.038339  d :     0.189408
      dxz     :     0.041767
      dyz     :     0.025059
      dx2y2   :     0.039293
      dxy     :     0.044949

 33 F s       :     1.884377  s :     1.884377
      pz      :     1.715211  p :     5.297063
      px      :     1.925430
      py      :     1.656422
      dz2     :     0.005282  d :     0.024256
      dxz     :     0.002942
      dyz     :     0.007695
      dx2y2   :     0.004710
      dxy     :     0.003627

 34 C s       :     0.970371  s :     0.970371
      pz      :     0.972377  p :     2.877666
      px      :     0.929326
      py      :     0.975962
      dz2     :     0.013543  d :     0.086846
      dxz     :     0.021296
      dyz     :     0.010495
      dx2y2   :     0.019326
      dxy     :     0.022186

 35 C s       :     1.059391  s :     1.059391
      pz      :     0.701146  p :     2.555988
      px      :     0.918148
      py      :     0.936694
      dz2     :     0.045921  d :     0.185278
      dxz     :     0.054110
      dyz     :     0.038889
      dx2y2   :     0.020524
      dxy     :     0.025833

 36 F s       :     1.886052  s :     1.886052
      pz      :     1.531675  p :     5.317792
      px      :     1.878472
      py      :     1.907645
      dz2     :     0.008512  d :     0.023616
      dxz     :     0.006782
      dyz     :     0.006001
      dx2y2   :     0.001117
      dxy     :     0.001205

 37 C s       :     0.960857  s :     0.960857
      pz      :     0.971376  p :     2.915202
      px      :     0.931523
      py      :     1.012303
      dz2     :     0.022001  d :     0.087012
      dxz     :     0.024972
      dyz     :     0.012167
      dx2y2   :     0.012712
      dxy     :     0.015159

 38 H s       :     0.926397  s :     0.926397
      pz      :     0.018203  p :     0.044777
      px      :     0.012024
      py      :     0.014551

 39 H s       :     0.918555  s :     0.918555
      pz      :     0.010727  p :     0.045062
      px      :     0.015497
      py      :     0.018838

 40 H s       :     0.926465  s :     0.926465
      pz      :     0.019193  p :     0.044775
      px      :     0.011025
      py      :     0.014558

 41 H s       :     0.914037  s :     0.914037
      pz      :     0.017908  p :     0.043084
      px      :     0.011196
      py      :     0.013980

 42 H s       :     0.914737  s :     0.914737
      pz      :     0.018680  p :     0.043092
      px      :     0.010390
      py      :     0.014022

 43 H s       :     0.911974  s :     0.911974
      pz      :     0.019258  p :     0.044179
      px      :     0.010261
      py      :     0.014660

 44 H s       :     0.911682  s :     0.911682
      pz      :     0.018345  p :     0.044187
      px      :     0.011250
      py      :     0.014592

 45 H s       :     0.916355  s :     0.916355
      pz      :     0.024264  p :     0.051295
      px      :     0.012079
      py      :     0.014952

 46 H s       :     0.898649  s :     0.898649
      pz      :     0.019945  p :     0.052292
      px      :     0.010790
      py      :     0.021557

 47 H s       :     0.906612  s :     0.906612
      pz      :     0.017452  p :     0.051821
      px      :     0.013753
      py      :     0.020616

 48 H s       :     0.902065  s :     0.902065
      pz      :     0.015551  p :     0.052490
      px      :     0.014558
      py      :     0.022380

 49 H s       :     0.899972  s :     0.899972
      pz      :     0.014642  p :     0.052304
      px      :     0.013692
      py      :     0.023969

 50 H s       :     0.910949  s :     0.910949
      pz      :     0.017267  p :     0.051295
      px      :     0.014067
      py      :     0.019961

 51 H s       :     0.891452  s :     0.891452
      pz      :     0.016185  p :     0.054166
      px      :     0.016752
      py      :     0.021230

 52 H s       :     0.898060  s :     0.898060
      pz      :     0.018093  p :     0.052181
      px      :     0.018556
      py      :     0.015532

 53 H s       :     0.916418  s :     0.916418
      pz      :     0.021770  p :     0.051303
      px      :     0.014701
      py      :     0.014831



                     *******************************
                     * LOEWDIN POPULATION ANALYSIS *
                     *******************************

----------------------
LOEWDIN ATOMIC CHARGES
----------------------
   0 C :   -0.110660
   1 C :   -0.079715
   2 C :   -0.071134
   3 C :   -0.017547
   4 C :   -0.031341
   5 C :    0.048130
   6 F :   -0.066323
   7 C :   -0.038134
   8 C :   -0.016934
   9 C :   -0.016368
  10 C :    0.052574
  11 F :   -0.059242
  12 C :   -0.030733
  13 C :   -0.027268
  14 O :   -0.096800
  15 O :    0.033044
  16 C :   -0.008538
  17 C :   -0.010581
  18 C :    0.042500
  19 F :   -0.068988
  20 C :   -0.039209
  21 C :   -0.031760
  22 C :   -0.021008
  23 C :    0.037432
  24 F :   -0.062106
  25 C :    0.038308
  26 F :   -0.056016
  27 C :    0.038528
  28 F :   -0.060714
  29 C :   -0.013542
  30 C :   -0.013623
  31 C :   -0.026826
  32 C :    0.056358
  33 F :   -0.050364
  34 C :   -0.015299
  35 C :    0.048101
  36 F :   -0.066528
  37 C :   -0.031370
  38 H :    0.043139
  39 H :    0.046589
  40 H :    0.043144
  41 H :    0.045935
  42 H :    0.045683
  43 H :    0.053383
  44 H :    0.053442
  45 H :    0.054194
  46 H :    0.058880
  47 H :    0.060971
  48 H :    0.057303
  49 H :    0.058706
  50 H :    0.055814
  51 H :    0.053175
  52 H :    0.059191
  53 H :    0.054150

-------------------------------
LOEWDIN REDUCED ORBITAL CHARGES
-------------------------------
  0 C s       :     0.766782  s :     0.766782
      pz      :     1.066009  p :     3.098542
      px      :     0.970960
      py      :     1.061573
      dz2     :     0.040792  d :     0.245336
      dxz     :     0.042151
      dyz     :     0.057212
      dx2y2   :     0.036579
      dxy     :     0.068602

[...]
  28 F       0.099426      0.032033     -0.060574      0.028110      0.005005     -0.124354     -0.039800      0.053016      0.045553     -0.080839
  29 C       0.616861      0.178319      0.053428      0.210947      0.082729     -0.286052     -0.036845      0.010974      0.071291     -0.063728
  30 C      -0.484241     -0.129930     -0.031978     -0.063723      0.112235      0.251148     -0.135167      0.063799      0.167148     -0.056047
  31 C       0.571923     -0.289157      0.064431      0.006621      0.075650     -0.247882      0.127000     -0.132283      0.207243     -0.086879
  32 C      -0.307857     -0.088272      0.090686     -0.250802      0.200231      0.036758     -0.118026      0.059740     -0.062724      0.008870
  33 F      -0.008631      0.008544     -0.078325      0.037931     -0.041512     -0.057843      0.053508     -0.031833      0.109259     -0.083873
  34 C       0.652368     -0.154970     -0.040346      0.131384     -0.106968     -0.090051      0.095516     -0.107718      0.163229     -0.193833
  35 C      -0.470227     -0.052765      0.141479     -0.066183      0.174996     -0.099818      0.011765      0.238172      0.086386      0.068976
  36 F      -0.015078      0.040078      0.086421     -0.009770     -0.023039      0.012652      0.034004     -0.138216     -0.088173     -0.043378
  37 C       0.519317      0.098215      0.247882      0.159387      0.037345      0.031055      0.039992     -0.294277     -0.081106     -0.101003
  38 H      -0.003871      0.023204      0.051959      0.012522      0.013159     -0.009112      0.001361     -0.007726      0.017503     -0.000195
  39 H       0.015483     -0.059450      0.001124     -0.015716     -0.002239     -0.001991     -0.001202     -0.004044      0.000179     -0.028552
  40 H      -0.011748      0.023223     -0.046553      0.011634     -0.015340     -0.012143     -0.003552     -0.011565     -0.015509      0.000726
  41 H      -0.017629     -0.004004     -0.056896     -0.006374     -0.018885      0.002246      0.000119     -0.000292     -0.020230      0.006244
  42 H      -0.006265     -0.004040      0.056063     -0.005946      0.021571      0.005959      0.002181      0.002725      0.019372      0.005835
  43 H       0.007767      0.003624     -0.050830      0.006118     -0.015838     -0.004607     -0.000600      0.000147     -0.018475     -0.005103
  44 H       0.015964      0.003470      0.049692      0.005921      0.014436     -0.001220     -0.001470      0.003796      0.019058     -0.004950
  45 H       0.028057      0.006509     -0.040448      0.002258     -0.014986      0.006215     -0.001348      0.006729     -0.011181      0.001958
  46 H       0.023430      0.034923     -0.026934      0.016217     -0.009721      0.007556     -0.000619      0.004396     -0.011186      0.013402
  47 H       0.027498      0.033260     -0.020017      0.011154     -0.007332      0.007833     -0.000258      0.007887     -0.009509      0.011397
  48 H       0.034821     -0.039867     -0.014863     -0.014136     -0.008241      0.010006      0.000140      0.008386     -0.005710     -0.010902
  49 H       0.036061      0.043123      0.006398      0.015087      0.004343      0.008987      0.000512      0.007463      0.003005      0.011865
  50 H      -0.034557     -0.038350      0.027970     -0.014207      0.014492     -0.006179     -0.001092     -0.006652      0.013763     -0.012500
  51 H       0.031419     -0.047327      0.018681     -0.015142      0.010034      0.008527      0.000983      0.005903      0.009210     -0.015533
  52 H       0.048407     -0.018922      0.022304     -0.005431      0.007232      0.011648     -0.001371      0.012336      0.008449     -0.008156
  53 H       0.035091      0.007149      0.036223      0.003027      0.011932      0.008118      0.001293      0.008708      0.009925      0.001750

 MBIS THIRD RADIAL MOMENT (A.U.):
  ATOM      <r^3>
   0 C   44.308894
   1 C   40.820562
   2 C   41.885933
   3 C   33.498466
   4 C   41.047567
   5 C   29.776579
   6 F   18.088985
   7 C   38.848769
   8 C   32.198273
   9 C   40.497693
  10 C   28.914084
  11 F   18.090795
  12 C   41.918202
  13 C   22.327816
  14 O   25.785382
  15 O   23.902762
  16 C   29.549400
  17 C   41.025582
  18 C   29.886310
  19 F   18.114244
  20 C   37.133791
  21 C   33.519899
  22 C   39.922977
  23 C   31.638995
  24 F   18.104000
  25 C   33.831214
  26 F   17.901494
  27 C   31.619270
  28 F   18.092796
  29 C   39.681974
  30 C   36.408124
  31 C   39.876750
  32 C   28.781210
  33 F   18.096435
  34 C   40.459364
  35 C   29.788412
  36 F   18.091960
  37 C   41.046464
  38 H    2.379445
  39 H    2.352616
  40 H    2.379627
  41 H    2.284654
  42 H    2.287515
  43 H    2.212214
  44 H    2.212458
  45 H    2.016540
  46 H    1.912426
  47 H    1.904110
  48 H    1.966856
  49 H    1.925480
  50 H    2.130362
  51 H    1.916086
  52 H    1.908686
  53 H    2.017238

-------------------------
RESP CHARGES GENERATION
-------------------------
Number of atoms                    ...           54
Number of "pure atoms"             ...           54
Grid spacing                       ...     0.300000
Point Cut-Off                      ...     2.800000
Van-der-Waals Radii                ...        COSMO
Total charge                       ...            0
Penalty function                   ... hyperbolic
Penalty function wa                ... 0.000500
Penalty function wb                ... 0.100000
Dipole moment constraint           ...        FALSE
Equivalent atom charge constraint  ...        FALSE

Grid generated                     ...      0.0 sec
Grid points                        ...        28281
Potential calculated               ...     13.5 sec
RespFile stored                    ...           ok

Iter     dqmax
--------------

0     0.910677
1     0.039009
2     0.004964
3     0.000670
4     0.000091
5     0.000012
6     0.000002
7     0.000000

Charges calculated                 ...      2.4 sec

RESP Charges            
--------------------------------
  0   C   :      -0.438187
  1   C   :       0.249501
  2   C   :      -0.095450
  3   C   :       0.101448
  4   C   :      -0.405200
  5   C   :       0.342775
  6   F   :      -0.197855
  7   C   :      -0.241739
  8   C   :       0.414613
  9   C   :      -0.519349
 10   C   :       0.498842
 11   F   :      -0.208200
 12   C   :      -0.551726
 13   C   :       0.904798
 14   O   :      -0.531154
 15   O   :      -0.394664
 16   C   :       0.432668
 17   C   :      -0.453107
 18   C   :       0.333168
 19   F   :      -0.195252
 20   C   :      -0.010374
 21   C   :       0.152614
 22   C   :      -0.415507
 23   C   :       0.294913
 24   F   :      -0.181486
 25   C   :       0.100088
 26   F   :      -0.152580
 27   C   :       0.329453
 28   F   :      -0.187552
 29   C   :      -0.443166
 30   C   :      -0.158059
 31   C   :      -0.394147
 32   C   :       0.507266
 33   F   :      -0.208624
 34   C   :      -0.521058
 35   C   :       0.343024
 36   F   :      -0.199643
 37   C   :      -0.403408
 38   H   :       0.102688
 39   H   :       0.107062
 40   H   :       0.102700
 41   H   :      -0.015009
 42   H   :      -0.015878
 43   H   :       0.060523
 44   H   :       0.062098
 45   H   :       0.224671
 46   H   :       0.247676
 47   H   :       0.249476
 48   H   :       0.235366
 49   H   :       0.247785
 50   H   :       0.177531
 51   H   :       0.241764
 52   H   :       0.250288
 53   H   :       0.223575
--------------------------------
Total charge:     0.000000
--------------------------------

RESP charges calculated...

Timings:
Grid generation                 ...        0.028 sec (=   0.000 min)
Potential calculation           ...       13.482 sec (=   0.225 min)
Fit to the potential            ...        2.431 sec (=   0.041 min)
------------------------------------------------------------------------------

-------
TIMINGS
-------

Total SCF time: 0 days 0 hours 14 min 5 sec 

Total time                  ....     845.052 sec
Sum of individual times     ....     817.755 sec  ( 96.8%)

SCF preparation             ....       2.136 sec  (  0.3%)
Fock matrix formation       ....     669.110 sec  ( 79.2%)
  Startup                   ....       0.052 sec  (  0.0% of F)
  Split-RI-J                ....      49.488 sec  (  7.4% of F)
  Chain of spheres X        ....     626.107 sec  ( 93.6% of F)
  XC integration            ....      19.406 sec  (  2.9% of F)
    XC Preparation          ....       0.000 sec  (  0.0% of XC)
    Basis function eval.    ....       5.554 sec  ( 28.6% of XC)
    Density eval.           ....       4.734 sec  ( 24.4% of XC)
    XC-Functional eval.     ....       1.344 sec  (  6.9% of XC)
    XC-Potential eval.      ....       5.724 sec  ( 29.5% of XC)
Diagonalization             ....       0.000 sec  (  0.0%)
Density matrix formation    ....       0.460 sec  (  0.1%)
Total Energy calculation    ....       0.247 sec  (  0.0%)
Population analysis         ....     142.405 sec  ( 16.9%)
Orbital Transformation      ....       0.401 sec  (  0.0%)
Orbital Orthonormalization  ....       0.000 sec  (  0.0%)
DIIS solution               ....       1.954 sec  (  0.2%)
SOSCF solution              ....       1.043 sec  (  0.1%)
Finished LeanSCF after 845.1 sec

Maximum memory used throughout the entire LEANSCF-calculation: 117.0 MB


-------------------------------------------------------------------------------
                          DFT DISPERSION CORRECTION                            
                                                                               
                                DFTD4 V3.4.0                                   
-------------------------------------------------------------------------------
The wB97X-3c composite method is recognized
Using three-body term ABC
Active option DFTDOPT                   ...         5   

-------------------------   ----------------
Dispersion correction           -0.087657113
-------------------------   ----------------


-------------------------   --------------------
FINAL SINGLE POINT ENERGY      -395.799794409594
-------------------------   --------------------



           ************************************************************
           *        Program running with 4 parallel MPI-processes     *
           *              working on a common directory               *
           ************************************************************

------------------------------------------------------------------------------
                              ORCA PROPERTY CALCULATIONS
------------------------------------------------------------------------------

GBWName                                 ... conf_008.gbw
Number of atoms                         ...     54
Number of basis functions               ...    574
Max core memory                         ...   4000 MB

Electric properties:
Dipole moment                           ... YES
Quadrupole moment                       ...  NO
Static polarizability (Dipole/Dipole)   ...  NO
Static polarizability (Dipole/Quad.)    ...  NO
Static polarizability (Quad./Quad.)     ...  NO
Static polarizability (Velocity)        ...  NO
Static hyperpolarizability              ...  NO

Atomic electric properties:
Dipole moment                           ...  NO
Quadrupole moment                       ...  NO
Static polarizability                   ...  NO

Choice of electric origin               ... Center of mass
Position of electric origin             ...    -2.970155    -0.251463     0.218083

General magnetic properties:
Magnetizability                         ...  NO

EPR properties:
g-Tensor (aka g-matrix)                 ...  NO
Zero-Field splitting spin-orbit         ...  NO
Zero-field splitting spin-spin          ...  NO
Hyperfine couplings                     ...  NO (   0 nuclei)
Quadrupole couplings                    ...  NO (   0 nuclei)
Contact density                         ...  NO (   0 nuclei)

NMR properties:
Chemical shifts                         ...  NO (   0 nuclei)
Spin-rotation constants                 ...  NO (   0 nuclei)
Spin-spin couplings                     ...  NO (   0 nuclei,    0 pairs)

Choice of magnetic origin               ... GIAO
Position of magnetic origin             ...     0.000000     0.000000     0.000000

Properties with geometric perturbations:
SCF Hessian                             ...  NO
IR spectrum                             ...  NO
VCD spectrum                            ...  NO
X-ray spectroscopy properties:
SCF XES/XAS/RIXS spectra                ...  NO

SCF SOC stabilization energy            ...  NO
Diagonal Born-Oppenheimer correction    ...  NO

-------------
DIPOLE MOMENT
-------------

Method             : SCF
Type of density    : Electron Density
Multiplicity       :   1
Irrep              :   0
Energy             :  -395.7121372966752801 Eh
Basis              : AO
                                X                 Y                 Z
Electronic contribution:    -71.830220699      -5.362178189       4.409241116
Nuclear contribution   :     75.584417909       6.099897896      -4.378165572
                        -----------------------------------------
Total Dipole Moment    :      3.754197211       0.737719706       0.031075544
                        -----------------------------------------
Magnitude (a.u.)       :      3.826119804
Magnitude (Debye)      :      9.725223664



--------------------
Rotational spectrum 
--------------------
 
Rotational constants in cm-1:             0.013443             0.000746             0.000730 
Rotational constants in MHz :           403.024438            22.357194            21.893441 

Dipole components along the rotational axes: 
x,y,z [a.u.] :    -3.788253    -0.327764    -0.425322 
x,y,z [Debye]:    -9.628975    -0.833111    -1.081083 

 

Dipole moment calculation done in   0.0 sec 

Maximum memory used throughout the entire PROP-calculation: 57.6 MB

--------------------------------
SUGGESTED CITATIONS FOR THIS RUN
--------------------------------

Below you find a list of papers that are relevant to this ORCA run
We neither can nor want to force you to cite these papers, but we appreciate if you do
You receive ORCA, which is the product of decades of hard work by many enthusiastic individuals, for free
The only thing we kindly ask in return is that you cite our papers,
We deeply appreciate it, if you show your appreciation for ORCA by not just citing the generic ORCA reference.

Please note that relegating all ORCA citations to the supporting information does *not* help us.
SI sections are not indexed - citations you put there will not count into any citation statistics
But we need these citations in order to attract the funding resources that allow us to do what we are doing

Therefore, if you are a happy ORCA user, please consider citing a few of the papers listed below in the main body of your paper

In addition to the list printed below, the program has created the file conf_008.bibtex that contains the list in bibtex format
You can import this file easily into all common literature databanks and citation aid programs


List of essential papers. We consider these as the minimum necessary citations

  1. Mueller, M.; Hansen, A.; Grimme, S.
     wB97X-3c: A composite range-separated hybrid DFT method with a molecule-optimized polarized valence double-zeta basis set
     J. Chem. Phys. 2023 158 , 014103
     doi.org/10.1063/5.0133026
  2. Neese, F.
     Software update: the ORCA program system, version 6.0
     WIRES Comput. Molec. Sci. 2025 15(1), e70019
     doi.org/10.1002/wcms.7019

List of papers to cite with high priority. The work reported in these papers was absolutely
necessary for this run to complete.
Our perspective: the developers of density functionals and basis sets usually get cited in chemistry papers
Good! But without the algorithms to do something with them, the functionals or basis sets would not do anything.
Hence, in our opinion, the algorithm design and method developments papers are equally worthy of getting cited

  1. Neese, F.
     An improvement of the resolution of the identity approximation for the formation of the Coulomb matrix
     J. Comp. Chem. 2003 24(14), 1740-1747
     doi.org/10.1002/jcc.10318
  2. Neese, F.; Wennmohs, F.; Hansen, A.; Becker, U.
     Efficient, approximate and parallel Hartree-Fock and hybrid DFT calculations. A 'chain-of-spheres' algorithm for the Hartree-Fock exchange
     Chem. Phys. 2009 356(1-3), 98-109
     doi.org/10.1016/j.chemphys.2008.10.036
  3. Caldeweyher, E.; Bannwarth, C.; Grimme, S.
     Extension of the D3 dispersion coefficient model
     J. Chem. Phys. 2017 147 , 034112
     doi.org/10.1063/1.4993215
  4. Caldeweyher, E.; Ehlert, S.; Hansen, A.; Neugebauer, H.; Spicher, S.; Bannwarth, C.; Grimme, S.
     A generally applicable atomic-charge dependent London dispersion correction
     J. Chem. Phys. 2019 150 , 154122
     doi.org/10.1063/1.5090222
  5. Caldeweyher, E.; Mewes, J.; Ehlert, S.; Grimme, S.
     Extension and evaluation of the D4 London-dispersion model for periodic systems
     Phys. Chem. Chem. Phys. 2020 22(16), 8499-8512
     doi.org/10.1039/D0CP00502A
  6. Helmich-Paris, B.; de Souza, B.; Neese, F.; Izsák, R.
     An improved chain of spheres for exchange algorithm
     J. Chem. Phys. 2021 155(10), 104109
     doi.org/10.1063/5.0058766
  7. Neese, F.
     The SHARK Integral Generation and Digestion System
     J. Comp. Chem. 2022 44(3), 381
     doi.org/10.1002/jcc.26942
  8. Wittmann, L.; Gordiy, I.; Friede, M.; Helmich-Paris, B.; Grimme, S.; Hansen, A.; Bursch, M.
     Extension of the D3 and D4 London Dispersion Corrections to the full Actinides Series
     Phys. Chem. Chem. Phys. 2024 26(32), 21379-21394
     doi.org/10.1039/D4CP01514B

List of suggested additional citations. These are papers that are important in the 'surrounding' of 
of this run, or papers that preceded the highly important papers. If you like your results we are grateful for a citation.

  1. Izsak, R.; Neese, F.
     An overlap fitted chain of spheres exchange method
     J. Chem. Phys. 2011 135 , 144105
     doi.org/10.1063/1.3646921
  2. Izsak, R.; Hansen, A.; Neese, F.
     The resolution of identity and chain of spheres approximations for the LPNO-CCSD singles Fock term
     Molec. Phys. 2012 110 , 2413-2417
     doi.org/10.1080/00268976.2012.687466
  3. Neese, F.
     The ORCA program system
     WIRES Comput. Molec. Sci. 2012 2(1), 73-78
     doi.org/10.1002/wcms.81
  4. Izsak, R.; Neese, F.; Klopper, W.
     Robust fitting techniques in the chain of spheres approximation to the Fock exchange: The role of the complementary space
     J. Chem. Phys. 2013 139 , 
     doi.org/10.1063/1.4819264
  5. Neese, F.
     Software update: the ORCA program system, version 4.0
     WIRES Comput. Molec. Sci. 2018 8(1), 1-6
     doi.org/10.1002/wcms.1327
  6. Neese, F.; Wennmohs, F.; Becker, U.; Riplinger, C.
     The ORCA quantum chemistry program package
     J. Chem. Phys. 2020 152(22), 224108
     doi.org/10.1063/5.0004608
  7. Neese, F.
     Software update: The ORCA program system—Version 5.0
     WIRES Comput. Molec. Sci. 2022 12(1), e1606
     doi.org/10.1002/wcms.1606

List of optional additional citations

  1. Neese, F.
     Approximate second-order SCF convergence for spin unrestricted wavefunctions
     Chem. Phys. Lett. 2000 325(1-3), 93-98
     doi.org/10.1016/s0009-2614(00)00662-x

Timings for individual modules:

Sum of individual times          ...      867.014 sec (=  14.450 min)
Startup calculation              ...       12.023 sec (=   0.200 min)   1.4 %
SCF iterations                   ...      852.811 sec (=  14.214 min)  98.4 %
Property calculations            ...        2.180 sec (=   0.036 min)   0.3 %
                             ****ORCA TERMINATED NORMALLY****
TOTAL RUN TIME: 0 days 0 hours 14 minutes 29 seconds 131 msec
