Loading openmpi/5.0.6/gcc-14.2.0
  Loading requirement: gcc/14.2.0

                                 *****************
                                 * O   R   C   A *
                                 *****************

                                            #,                                       
                                            ###                                      
                                            ####                                     
                                            #####                                    
                                            ######                                   
                                           ########,                                 
                                     ,,################,,,,,                         
                               ,,#################################,,                 
                          ,,##########################################,,             
                       ,#########################################, ''#####,          
                    ,#############################################,,   '####,        
                  ,##################################################,,,,####,       
                ,###########''''           ''''###############################       
              ,#####''   ,,,,##########,,,,          '''####'''          '####       
            ,##' ,,,,###########################,,,                        '##       
           ' ,,###''''                  '''############,,,                           
         ,,##''                                '''############,,,,        ,,,,,,###''
      ,#''                                            '''#######################'''  
     '                                                          ''''####''''         
             ,#######,   #######,   ,#######,      ##                                
            ,#'     '#,  ##    ##  ,#'     '#,    #''#        ,####,    ,#,          
            ##       ##  ##   ,#'  ##            #'  '#       #'       ,# #          
            ##       ##  #######   ##           ,######,      #####,      #          
            '#,     ,#'  ##    ##  '#,     ,#' ,#      #,     #,   #      #          
             '#######'   ##     ##  '#######'  #'      '#     '####' #    #          



                #########################################################
                #                        -***-                          #
                #          Department of theory and spectroscopy        #
                #                                                       #
                #                      Frank Neese                      #
                #                                                       #
                #     Directorship, Architecture, Infrastructure        #
                #                    SHARK, DRIVERS                     #
                #        Core code/Algorithms in most modules           #
                #                                                       #
                #        Max Planck Institute fuer Kohlenforschung      #
                #                Kaiser Wilhelm Platz 1                 #
                #                 D-45470 Muelheim/Ruhr                 #
                #                      Germany                          #
                #                                                       #
                #                  All rights reserved                  #
                #                        -***-                          #
                #########################################################


                         Program Version 6.1.0  -  RELEASE   -
                                (GIT: $679e74b$)
                          ($2025-06-10 18:02:51 +0200$)


 With contributions from (in alphabetic order):
[Max-Planck-Institut fuer Kohlenforschung]                               
  Daniel Aravena         : Magnetic Suceptibility                        
  Michael Atanasov       : Ab Initio Ligand Field Theory (pilot matlab implementation)
  Alexander A. Auer      : GIAO ZORA, VPT2 properties, NMR spectrum      
  Ute Becker             : All parallelization in ORCA, NUMFREQ, NUMCALC 
  Giovanni Bistoni       : ED, misc. LED, open-shell LED, HFLD           
  Dmytro Bykov           : pre 5.0 version of the SCF Hessian            
  Marcos Casanova-Páez   : Triplet and SCS-CIS(D). UHF-(DLPNO)-IP/EA/STEOM-CCSD. UHF-CVS-IP/STEOM-CCSD   
  Vijay G. Chilkuri      : MRCI spin determinant printing, contributions to CSF-ICE 
  Pauline Colinet        : FMM embedding                                 
  Dipayan Datta          : RHF DLPNO-CCSD density                        
  Achintya Kumar Dutta   : EOM-CC, STEOM-CC                              
  Nicolas Foglia         : Exact transition moments, OPA infrastructure, MCD improvements    
  Dmitry Ganyushin       : Spin-Orbit,Spin-Spin,Magnetic field MRCI      
  Miquel Garcia-Rates    : C-PCM and meta-GGA Hessian, CCSD/C-PCM, Gaussian charge scheme 
  Tiago L. C. Gouveia    : GS-ROHF, GS-ROCIS                             
  Yang Guo               : DLPNO-NEVPT2, F12-NEVPT2, CIM, IAO-localization        
  Andreas Hansen         : Spin unrestricted coupled pair/coupled cluster methods 
  Ingolf Harden          : AUTO-CI MPn and infrastructure                
  Benjamin Helmich-Paris : MC-RPA, TRAH-(SCF,CASSCF), AVAS, COSX integrals, SCF dyn. polar., MC-PDFT, srDFT 
  Lee Huntington         : MR-EOM, pCC                                   
  Robert Izsak           : Overlap fitted RIJCOSX, COSX-SCS-MP3, EOM     
  Riya Kayal             : Wick's Theorem for AUTO-CI, AUTO-CI UHF-CCSDT 
  Emily Kempfer          : AUTO-CI RHF CISDT and CCSDT, approximate NEVPT4
  Christian Kollmar      : KDIIS, OOCD, Brueckner-CCSD(T), CCSD density, CASPT2, CASPT2-K, improved NEVPT2 
  Axel Koslowski         : Symmetry handling                             
  Simone Kossmann        : meta-GGA functionals, TD-DFT gradient, OOMP2, (MP2 Hessian; deprecated post 5.0) 
  Lucas Lang             : DCDCAS, Hyperfine gauge corrections, ICE-SOC+SSC
  Marvin Lechner         : AUTO-CI (C++ implementation), FIC-MRCC        
  Spencer Leger          : CASSCF response                               
  Dagmar Lenk            : GEPOL surface, SMD, ORCA-2-JSON               
  Dimitrios Liakos       : Extrapolation schemes; Compound Job, Property file
  Dimitrios Manganas     : Further ROCIS development; embedding schemes. LFT, Crystal Embedding 
  Dimitrios Pantazis     : SARC Basis sets                               
  Anastasios Papadopoulos: AUTO-CI, single reference methods and gradients 
  Taras Petrenko         : pre 6.0 DFT Hessian and TD-DFT gradient,  ECA, NRVS 
  Petra Pikulova         : Analytic Raman intensities                    
  Peter Pinski           : DLPNO-MP2, DLPNO-MP2 Gradient                 
  Shashank Vittal Rao    : ES-AILFT, MagRelax                            
  Christoph Reimann      : Effective Core Potentials                     
  Marius Retegan         : Local ZFS, SOC                                
  Christoph Riplinger    : Optimizer, TS searches, QM/MM, DLPNO-CCSD(T), (RO)-DLPNO pert. Triples 
  Michael Roemelt        : Original ROCIS implementation, recursive CI coupling coefficients
  Masaaki Saitow         : Open-shell DLPNO-CCSD energy and density      
  Barbara Sandhoefer     : DKH picture change effects                    
  Yorick L. A. Schmerwitz: GMF and freeze-and-release deltaSCF, NEB S-IDPP initial path                    
  Kantharuban Sivalingam : CASSCF convergence/infrastructure, NEVPT2, NEVPT3, NEVPT4(SD), FIC-MRCI and CEPA variants
  Bernardo de Souza      : ESD, SOC TD-DFT                               
  Georgi L. Stoychev     : AutoAux, RI-MP2 NMR, DLPNO-MP2 response, X2C  
  Van Anh Tran           : RI-MP2 g-tensors                              
  Willem Van den Heuvel  : Paramagnetic NMR                              
  Zikuan Wang            : NOTCH, Electric field optimization            
  Frank Wennmohs         : Technical directorship and infrastructure     
  Hang Xu                : AUTO-CI-Response properties                   
                                                                         
[FACCTs GmbH]                                                            
  Markus Bursch, Nicolas Foglia, Miquel Garcia-Rates, Ingolf Harden, Hagen Neugebauer, Anastasios Papadopoulos, 
  Christoph Riplinger, Bernardo de Souza, Georgi L. Stoychev                                                    
                                                                 
  APM, various basis sets, CI-OPT, improved COSX, DLPNO-Multilevel,           
  DOCKER, DRACO, updates on ESD, Fragmentator, GOAT, IRC, LR-CPCM, L-BFGS, MBIS, meta-GGA TD-DFT gradient, ML-optimized integration grids, 
  MM, NACMEs, nearIR, NEB, NEB-TS, NL-DFT gradient (VV10), 2- and 3-layer-ONIOM, interface openCOSMO-RS, QMMM,   
  Crystal-QMMM, RESP, rigid body optimization, SF, symmetry and pop. for TD-DFT, various functionals, SOLVATOR                                   
                                                                         
[Other institutions]                                                     
  V. Asgeirsson          : NEB                                           
  Christoph Bannwarth    : sTDA-DFT, sTD-DFT, PBEh-3c, B97-3c, D3        
  Giovanni Bistoni       : ETS/NOCV, ADLD/ADEX, COVALED                  
  Martin Brehm           : Molecular dynamics                            
  Ronald Cardenas        : ETS/NOCV                                      
  Martina Colucci        : COVALED                                       
  Sebastian Ehlert       : rSCAN, r2SCAN, r2SCAN-3c, D4, dhf basis sets  
  Marvin Friede          : D4 for Fr, Ra, Ac-Lr                          
  Lars Goerigk           : TD-DFT with DH, B97 family of functionals     
  Stefan Grimme          : VdW corrections, initial TS optimization, DFT functionals, gCP, sTDA/sTD-DF 
  Waldemar Hujo          : DFT-NL                                        
  H. Jonsson             : NEB                                           
  Holger Kruse           : gCP                                           
  Marcel Mueller         : wB97X-3c, vDZP basis set                      
  Hagen Neugebauer       : wr2SCAN, Native XTB                           
  Gianluca Regni         : ADLD/ADEX                                     
  Tobias Risthaus        : pre 6.0 range-separated hybrid DFT and stability analysis
  Lukas Wittmann         : regularized MP2, r2SCAN double-hybrids, wr2SCAN        
                                                                         
We gratefully acknowledge several colleagues who have allowed us to      
interface, adapt or use parts of their codes:                            
  Ed Valeev, F. Pavosevic, A. Kumar             : LibInt (2-el integral package), F12 methods 
  Garnet Chan, S. Sharma, J. Yang, R. Olivares  : DMRG                   
  Ulf Ekstrom                                   : XCFun DFT Library      
  Mihaly Kallay                                 : mrcc  (arbitrary order and MRCC methods)
  Frank Weinhold                                : gennbo (NPA and NBO analysis)           
  Simon Mueller                                 : openCOSMO-RS                            
  Christopher J. Cramer and Donald G. Truhlar   : smd solvation model                     
  S Lehtola, MJT Oliveira, MAL Marques          : LibXC Library                           
  Liviu Ungur et al                             : ANISO software                          


 Your calculation uses the libint2 library for the computation of 2-el integrals
 For citations please refer to: http://libint.valeyev.net

 Your ORCA version has been built with support for libXC version: 7.0.0
 For citations please refer to: https://libxc.gitlab.io

 This ORCA versions uses:
   CBLAS   interface :  Fast vector & matrix operations
   LAPACKE interface :  Fast linear algebra routines
   SCALAPACK package :  Parallel linear algebra routines
   Shared memory     :  Shared parallel matrices
   BLAS/LAPACK       :  OpenBLAS 0.3.29  USE64BITINT DYNAMIC_ARCH NO_AFFINITY Cooperlake SINGLE_THREADED
        Core in use  :  Cooperlake
   Copyright (c) 2011-2014, The OpenBLAS Project


  ***********************************
  * Starting time: Wed May 13 14:54:46 2026
  * Host name:     node045.aire.lee.alces.network
  * Process ID:    972922
  * Working dir.:  /tmp/job.4919722
  ***********************************

NOTE: MaxCore=4000 MB was set to SCF,MP2,MDCI,CIPSI,MRCI,RASCI and CIS
      => If you want to overwrite this, your respective input block should be placed after the MaxCore statement


***************************************
The coordinates will be read from file: conf_021.xyz
***************************************


Your calculation utilizes the atom-pairwise dispersion correction
based on EEQ partial charges (D4)


================================================================================

cite the ECPs for C  [vDZP-ECP], F  [vDZP-ECP], O  [vDZP-ECP] as follows:
   B-Ne (ecp-2-mwb), Al-Ar (ecp-10-mwb), Ga-Kr (ecp-28-mwb), Y-Cd (ecp-28-mwb), In-Xe (ecp-46-mwb):
     A. Bergner, M. Dolg, W. Küchle, H. Stoll, and H. Preuß, Mol. Phys. 80, 1431 (1993)., T. Leininger, A. Berning, A. Nicklass, H. Stoll, H.-J. Werner, and H.-J.Flad, Chem. Phys. 217, 19 (1997).
   Na-Mg, K-Ca, Rb-Sr, Cs-Ba (CRENBL):
     L. Fernandez Pacios and P. A. Christiansen, J. Chem. Phys. 82, 2664 (1985)., M. M. Hurley, L. F. Pacios, P. A. Christiansen, R. B. Ross, and W. C. Ermler, J. Chem. Phys. 84, 6840 (1986)., L. A. LaJohn, P. A. Christiansen, R. B. Ross, T. Atashroo, and W. C. Ermler, J. Chem. Phys. 87, 2812 (1987)., R. B. Ross, J. M. Powers, T. Atashroo, W. C. Ermler, L. A. LaJohn, and P. A. Christiansen, J. Chem. Phys. 93, 6654 (1990). 
   Sc-Zn (ecp-10-mdf):
     M. Dolg, U. Wedig, H. Stoll, and H. Preuss, J. Chem. Phys. 86, 866 (1986). 
   Y-Cd (ecp-28-mwb), Hf-Hg (ecp-60-mwb):
     D. Andrae, U. Häußermann, M. Dolg, H. Stoll, and H. Preuß, Theor. Chim. Acta 77, 123 (1990). 
   La (ecp-46-mwb):
     M. Dolg, H. Stoll, and H. Preuss, J. Chem. Phys. 90, 1730 (1989)., M. Dolg, H. Stoll, and H. Preuss, Theor. Chim. Acta 85, 441 (1993).
   Ce-Lu (SBKJC-ecp):
     T. R. Cundari and W. J. Stevens, J. Chem. Phys. 98, 5555 (1993).
   Tl-Rn (ecp-78-mwb):
     W. Küchle, M. Dolg, H. Stoll, and H. Preuss, Mol. Phys. 74, 1245 (1991).

ECP parameters for C  [vDZP-ECP], F  [vDZP-ECP], O  [vDZP-ECP] have been obtained from:
MM, AH, SG, J. Chem. Phys. 158, 014103 (2023), 10.1063/5.0133026

----- Orbital basis set information -----
Your calculation utilizes the basis: vDZP
   Marcel Mueller, Andreas Hansen, Stefan Grimme 
   J. Chem. Phys. 158, 014103 (2023). DOI: 10.1063/5.0133026

----- AuxJ basis set information -----
Your calculation utilizes the auxiliary basis: def2/J
   H-Rn: F. Weigend, Phys. Chem. Chem. Phys. 8, 1057 (2006).
   Fr-Lr: K. Eichkorn, F. Weigend, O. Treutler, R. Ahlrichs; Theor. Chem. Acc. 97, 119 (1997).

================================================================================
                                        WARNINGS
                       Please study these warnings very carefully!
================================================================================

WARNING: Frozen-Core approximation turned on, but there are no core electrons.
  ===> : Turning off frozen-core approximation


================================================================================
                                       INPUT FILE
================================================================================
NAME = conf_021.inp
|  1> ! wb97x-3c mbis hirshfeld chelpg resp
|  2> %pal nprocs 4 end
|  3> %maxcore 4000
|  4> %method
|  5> 	   MBIS_LARGEPRINT TRUE
|  6> 	end
|  7> #conf_021
|  8> * xyzfile 0 1 conf_021.xyz
|  9> 
| 10>                          ****END OF INPUT****
================================================================================

                       ****************************
                       * Single Point Calculation *
                       ****************************

---------------------------------
CARTESIAN COORDINATES (ANGSTROEM)
---------------------------------
  C     10.556121   -0.299308   -0.931227
  C      9.044523   -0.274046   -1.126077
  C      8.356135    0.410341    0.051503
  C      6.858623    0.495838   -0.023476
  C      6.173065    1.105689    1.024558
  C      4.799656    1.212362    0.993790
  F      4.185198    1.793436    2.041203
  C      4.023167    0.718208   -0.056406
  C      2.557541    0.836393   -0.076857
  C      1.768972   -0.252071   -0.441542
  C      0.394599   -0.127497   -0.451753
  F     -0.332544   -1.191162   -0.821021
  C     -0.250440    1.063608   -0.119867
  C     -1.734049    1.220053   -0.174537
  O     -2.298669    2.191638   -0.589854
  O     -2.322403    0.103997    0.291432
  C     -3.687711   -0.070061    0.331702
  C     -4.601387    0.963129    0.479209
  C     -5.945746    0.647812    0.552986
  F     -6.815153    1.667136    0.677840
  C     -6.423380   -0.659181    0.481935
  C     -7.858475   -0.973879    0.552943
  C     -8.399205   -1.931063   -0.302507
  C     -9.743868   -2.238369   -0.237454
  F    -10.248887   -3.158269   -1.071650
  C    -10.582072   -1.611733    0.678631
  F    -11.883230   -1.918611    0.740150
  C    -10.030992   -0.658960    1.528910
  F    -10.815670   -0.047895    2.425867
  C     -8.688478   -0.337449    1.471762
  C     -5.474726   -1.671561    0.332485
  C     -4.127654   -1.389524    0.263267
  C      0.568131    2.137269    0.233097
  F      0.006445    3.297457    0.583531
  C      1.944742    2.038340    0.267260
  C      4.740465    0.108097   -1.083570
  F      4.071771   -0.377007   -2.146824
  C      6.118048   -0.002800   -1.085926
  H     11.039830   -0.786913   -1.773697
  H     10.949197    0.711643   -0.849608
  H     10.817252   -0.842627   -0.025766
  H      8.812239    0.260889   -2.048864
  H      8.679164   -1.298404   -1.220463
  H      8.749086    1.426764    0.150378
  H      8.619943   -0.117866    0.972752
  H      6.706213    1.502500    1.874452
  H      2.209231   -1.198066   -0.712436
  H     -4.296604    1.995543    0.525691
  H     -7.788206   -2.427751   -1.038855
  H     -8.306839    0.403746    2.154782
  H     -5.806480   -2.697122    0.291485
  H     -3.396406   -2.173914    0.153497
  H      2.523101    2.902193    0.552360
  H      6.586816   -0.480976   -1.929260

----------------------------
CARTESIAN COORDINATES (A.U.)
----------------------------
  NO LB      ZA    FRAG     MASS         X           Y           Z
   0 C     4.0000*   0    12.011   19.948178   -0.565611   -1.759764
   1 C     4.0000*   0    12.011   17.091671   -0.517872   -2.127977
   2 C     4.0000*   0    12.011   15.790807    0.775431    0.097326
   3 C     4.0000*   0    12.011   12.960918    0.936999   -0.044363
   4 C     4.0000*   0    12.011   11.665402    2.089450    1.936133
   5 C     4.0000*   0    12.011    9.070035    2.291032    1.877992
   6 F     7.0000*   0    18.998    7.908877    3.389103    3.857314
   7 C     4.0000*   0    12.011    7.602683    1.357216   -0.106591
   8 C     4.0000*   0    12.011    4.833052    1.580554   -0.145239
   9 C     4.0000*   0    12.011    3.342873   -0.476345   -0.834394
  10 C     4.0000*   0    12.011    0.745684   -0.240934   -0.853689
  11 F     7.0000*   0    18.998   -0.628416   -2.250969   -1.551505
  12 C     4.0000*   0    12.011   -0.473262    2.009928   -0.226516
  13 C     4.0000*   0    12.011   -3.276877    2.305566   -0.329827
  14 O     6.0000*   0    15.999   -4.343856    4.141596   -1.114662
  15 O     6.0000*   0    15.999   -4.388706    0.196527    0.550727
  16 C     4.0000*   0    12.011   -6.968763   -0.132396    0.626827
  17 C     4.0000*   0    12.011   -8.695362    1.820050    0.905574
  18 C     4.0000*   0    12.011  -11.235831    1.224187    1.044991
  19 F     7.0000*   0    18.998  -12.878773    3.150430    1.280931
  20 C     4.0000*   0    12.011  -12.138430   -1.245672    0.910725
  21 C     4.0000*   0    12.011  -14.850365   -1.840364    1.044911
  22 C     4.0000*   0    12.011  -15.872197   -3.649179   -0.571656
  23 C     4.0000*   0    12.011  -18.413242   -4.229904   -0.448724
  24 F     7.0000*   0    18.998  -19.367589   -5.968263   -2.025125
  25 C     4.0000*   0    12.011  -19.997218   -3.045734    1.282426
  26 F     7.0000*   0    18.998  -22.456049   -3.625650    1.398682
  27 C     4.0000*   0    12.011  -18.955829   -1.245255    2.889221
  28 F     7.0000*   0    18.998  -20.438655   -0.090508    4.584225
  29 C     4.0000*   0    12.011  -16.418845   -0.637686    2.781226
  30 C     4.0000*   0    12.011  -10.345732   -3.158793    0.628306
  31 C     4.0000*   0    12.011   -7.800135   -2.625819    0.497503
  32 C     4.0000*   0    12.011    1.073611    4.038853    0.440489
  33 F     7.0000*   0    18.998    0.012179    6.231290    1.102714
  34 C     4.0000*   0    12.011    3.675029    3.851904    0.505049
  35 C     4.0000*   0    12.011    8.958181    0.204275   -2.047651
  36 F     7.0000*   0    18.998    7.694532   -0.712439   -4.056910
  37 C     4.0000*   0    12.011   11.561436   -0.005292   -2.052103
  38 H     1.0000    0     1.008   20.862255   -1.487050   -3.351802
  39 H     1.0000    0     1.008   20.690984    1.344810   -1.605526
  40 H     1.0000    0     1.008   20.441644   -1.592334   -0.048690
  41 H     1.0000    0     1.008   16.652719    0.493009   -3.871793
  42 H     1.0000    0     1.008   16.401242   -2.453627   -2.306342
  43 H     1.0000    0     1.008   16.533376    2.696194    0.284172
  44 H     1.0000    0     1.008   16.289331   -0.222735    1.838235
  45 H     1.0000    0     1.008   12.672907    2.839314    3.542200
  46 H     1.0000    0     1.008    4.174841   -2.264017   -1.346309
  47 H     1.0000    0     1.008   -8.119406    3.771030    0.993412
  48 H     1.0000    0     1.008  -14.717576   -4.587785   -1.963151
  49 H     1.0000    0     1.008  -15.697650    0.762970    4.071948
  50 H     1.0000    0     1.008  -10.972657   -5.096821    0.550827
  51 H     1.0000    0     1.008   -6.418277   -4.108102    0.290067
  52 H     1.0000    0     1.008    4.767970    5.484349    1.043810
  53 H     1.0000    0     1.008   12.447279   -0.908912   -3.645772
* core charge reduced due to ECP

--------------------------------
INTERNAL COORDINATES (ANGSTROEM)
--------------------------------
 C      0   0   0     0.000000000000     0.00000000     0.00000000
 C      1   0   0     1.524314121484     0.00000000     0.00000000
 C      2   1   0     1.526091912233   110.86161423     0.00000000
 C      3   2   1     1.501824226908   115.89927473   180.08441817
 C      4   3   2     1.392939826028   118.56233958   179.77939768
 C      5   4   3     1.377889165677   120.50811166   179.64981485
 F      6   5   4     1.346208835829   118.09890823   179.05842568
 C      6   5   4     1.396436657177   122.93174637     0.59894280
 C      8   6   5     1.470525329039   122.42647514   179.90687052
 C      9   8   6     1.392691234187   120.34207925   224.73613587
 C     10   9   8     1.380044944007   119.68822451   179.78325944
 F     11  10   9     1.340327959792   118.07872514   179.33228086
 C     11  10   9     1.394615753468   122.40867806     0.63669475
 C     13  11  10     1.492836116956   122.71437800   177.80659114
 O     14  13  11     1.198024407882   124.47629123   221.15913107
 O     14  13  11     1.344941782376   109.57881444    40.24846886
 C     16  14  13     1.376946599071   123.28394836   181.88876555
 C     17  16  14     1.387099830457   124.19985629   330.46509925
 C     18  17  16     1.382811352712   118.43787782   182.30497781
 F     19  18  17     1.345540543087   117.41160220   180.87432694
 C     19  18  17     1.393346404434   122.98626994   359.80519212
 C     21  19  18     1.470908661767   122.18647572   180.43601268
 C     22  21  19     1.392977228651   119.74224102   137.83729267
 C     23  22  21     1.380864785789   120.13225287   179.62336568
 F     24  23  22     1.340575259850   119.35617277   179.74172101
 C     24  23  22     1.390852033011   121.17262504   359.66839146
 F     26  24  23     1.338271238228   120.85762477   180.29228462
 C     26  24  23     1.390841110214   118.19746049     0.24514157
 F     28  26  24     1.339273376967   119.33069918   180.43967742
 C     28  26  24     1.381658275560   121.27294779     0.00000000
 C     21  19  18     1.395418929333   116.93343737     0.14296537
 C     31  21  19     1.378019735044   121.43018733     0.21906626
 C     13  11  10     1.395488555433   116.48683923   359.75031960
 F     33  13  11     1.335788544697   119.20534763   181.15751267
 C     33  13  11     1.380584210075   122.41327288   359.48774483
 C      8   6   5     1.393491759601   115.02779420   359.77414526
 F     36   8   6     1.346472085583   118.95821477   181.08138711
 C     36   8   6     1.382041518879   123.33117969   359.62296214
 H      1   2   3     1.086962738184   110.46629051   180.06313907
 H      1   2   3     1.087746414533   110.64284744   300.00075533
 H      1   2   3     1.087770380171   110.65501480    60.11711361
 H      2   1   3     1.091626373924   109.09832605   120.86945277
 H      2   1   3     1.091652462770   109.11066328   239.12117352
 H      3   2   1     1.094213586484   108.92382693    58.04946094
 H      3   2   1     1.094210828312   108.93069567   302.14078411
 H      5   4   3     1.078900596682   120.69745633   359.62900817
 H     10   9   8     1.078016028318   121.35905067     0.14776353
 H     18  17  16     1.077465626427   122.13894627     3.04131291
 H     23  22  21     1.078066729390   121.06683548   358.20927434
 H     30  28  26     1.077745954488   118.54817998   180.30681829
 H     31  21  19     1.078664142399   118.99712358   178.92321446
 H     32  31  21     1.077980146486   121.28556601   179.64361210
 H     35  33  13     1.077971668748   118.95366811   180.27922642
 H     38  36   8     1.076849917318   118.09119307   180.69831635

---------------------------
INTERNAL COORDINATES (A.U.)
---------------------------
 C      0   0   0     0.000000000000     0.00000000     0.00000000
 C      1   0   0     2.880536231673     0.00000000     0.00000000
 C      2   1   0     2.883895769313   110.86161423     0.00000000
 C      3   2   1     2.838036490143   115.89927473   180.08441817
 C      4   3   2     2.632274792225   118.56233958   179.77939768
 C      5   4   3     2.603833166027   120.50811166   179.64981485
 F      6   5   4     2.543966018782   118.09890823   179.05842568
 C      6   5   4     2.638882845432   122.93174637     0.59894280
 C      8   6   5     2.778890144879   122.42647514   179.90687052
 C      9   8   6     2.631805021727   120.34207925   224.73613587
 C     10   9   8     2.607906996677   119.68822451   179.78325944
 F     11  10   9     2.532852773644   118.07872514   179.33228086
 C     11  10   9     2.635441836108   122.40867806     0.63669475
 C     13  11  10     2.821051423872   122.71437800   177.80659114
 O     14  13  11     2.263938032650   124.47629123   221.15913107
 O     14  13  11     2.541571634759   109.57881444    40.24846886
 C     16  14  13     2.602051973278   123.28394836   181.88876555
 C     17  16  14     2.621238799973   124.19985629   330.46509925
 C     18  17  16     2.613134751502   118.43787782   182.30497781
 F     19  18  17     2.542703128523   117.41160220   180.87432694
 C     19  18  17     2.633043114064   122.98626994   359.80519212
 C     21  19  18     2.779614538752   122.18647572   180.43601268
 C     22  21  19     2.632345472939   119.74224102   137.83729267
 C     23  22  21     2.609456273118   120.13225287   179.62336568
 F     24  23  22     2.533320103027   119.35617277   179.74172101
 C     24  23  22     2.628329435198   121.17262504   359.66839146
 F     26  24  23     2.528966133155   120.85762477   180.29228462
 C     26  24  23     2.628308794103   118.19746049     0.24514157
 F     28  26  24     2.530859900920   119.33069918   180.43967742
 C     28  26  24     2.610955751475   121.27294779     0.00000000
 C     21  19  18     2.636959618529   116.93343737     0.14296537
 C     31  21  19     2.604079906371   121.43018733     0.21906626
 C     13  11  10     2.637091192790   116.48683923   359.75031960
 F     33  13  11     2.524274522306   119.20534763   181.15751267
 C     33  13  11     2.608926061858   122.41327288   359.48774483
 C      8   6   5     2.633317795521   115.02779420   359.77414526
 F     36   8   6     2.544463488722   118.95821477   181.08138711
 C     36   8   6     2.611679976390   123.33117969   359.62296214
 H      1   2   3     2.054061892945   110.46629051   180.06313907
 H      1   2   3     2.055542826621   110.64284744   300.00075533
 H      1   2   3     2.055588115114   110.65501480    60.11711361
 H      2   1   3     2.062874887282   109.09832605   120.86945277
 H      2   1   3     2.062924188056   109.11066328   239.12117352
 H      3   2   1     2.067764010471   108.92382693    58.04946094
 H      3   2   1     2.067758798281   108.93069567   302.14078411
 H      5   4   3     2.038826653453   120.69745633   359.62900817
 H     10   9   8     2.037155061498   121.35905067     0.14776353
 H     18  17  16     2.036114952662   122.13894627     3.04131291
 H     23  22  21     2.037250872640   121.06683548   358.20927434
 H     30  28  26     2.036644695924   118.54817998   180.30681829
 H     31  21  19     2.038379819615   118.99712358   178.92321446
 H     32  31  21     2.037087254663   121.28556601   179.64361210
 H     35  33  13     2.037071234060   118.95366811   180.27922642
 H     38  36   8     2.034951431067   118.09119307   180.69831635

---------------------
BASIS SET INFORMATION
---------------------
There are 4 groups of distinct atoms

 Group   1 Type C   : 6s6p2d contracted to 2s2p1d pattern {42/42/2}
 Group   2 Type F   : 6s6p2d contracted to 2s2p1d pattern {42/42/2}
 Group   3 Type O   : 6s6p2d contracted to 2s2p1d pattern {42/42/2}
 Group   4 Type H   : 8s2p contracted to 2s1p pattern {53/2}

Atom   0C    basis set group =>   1
Atom   1C    basis set group =>   1
Atom   2C    basis set group =>   1
Atom   3C    basis set group =>   1
Atom   4C    basis set group =>   1
Atom   5C    basis set group =>   1
Atom   6F    basis set group =>   2
Atom   7C    basis set group =>   1
Atom   8C    basis set group =>   1
Atom   9C    basis set group =>   1
Atom  10C    basis set group =>   1
Atom  11F    basis set group =>   2
Atom  12C    basis set group =>   1
Atom  13C    basis set group =>   1
Atom  14O    basis set group =>   3
Atom  15O    basis set group =>   3
Atom  16C    basis set group =>   1
Atom  17C    basis set group =>   1
Atom  18C    basis set group =>   1
Atom  19F    basis set group =>   2
Atom  20C    basis set group =>   1
Atom  21C    basis set group =>   1
Atom  22C    basis set group =>   1
Atom  23C    basis set group =>   1
Atom  24F    basis set group =>   2
Atom  25C    basis set group =>   1
Atom  26F    basis set group =>   2
Atom  27C    basis set group =>   1
Atom  28F    basis set group =>   2
Atom  29C    basis set group =>   1
Atom  30C    basis set group =>   1
Atom  31C    basis set group =>   1
Atom  32C    basis set group =>   1
Atom  33F    basis set group =>   2
Atom  34C    basis set group =>   1
Atom  35C    basis set group =>   1
Atom  36F    basis set group =>   2
Atom  37C    basis set group =>   1
Atom  38H    basis set group =>   4
Atom  39H    basis set group =>   4
Atom  40H    basis set group =>   4
Atom  41H    basis set group =>   4
Atom  42H    basis set group =>   4
Atom  43H    basis set group =>   4
Atom  44H    basis set group =>   4
Atom  45H    basis set group =>   4
Atom  46H    basis set group =>   4
Atom  47H    basis set group =>   4
Atom  48H    basis set group =>   4
Atom  49H    basis set group =>   4
Atom  50H    basis set group =>   4
Atom  51H    basis set group =>   4
Atom  52H    basis set group =>   4
Atom  53H    basis set group =>   4
---------------------------------
AUXILIARY/J BASIS SET INFORMATION
---------------------------------
There are 4 groups of distinct atoms

 Group   1 Type C   : 12s5p4d2f1g contracted to 6s4p3d1f1g pattern {711111/2111/211/2/1}
 Group   2 Type F   : 12s5p4d2f1g contracted to 6s4p3d1f1g pattern {711111/2111/211/2/1}
 Group   3 Type O   : 12s5p4d2f1g contracted to 6s4p3d1f1g pattern {711111/2111/211/2/1}
 Group   4 Type H   : 5s2p1d contracted to 3s1p1d pattern {311/2/1}

Atom   0C    basis set group =>   1
Atom   1C    basis set group =>   1
Atom   2C    basis set group =>   1
Atom   3C    basis set group =>   1
Atom   4C    basis set group =>   1
Atom   5C    basis set group =>   1
Atom   6F    basis set group =>   2
Atom   7C    basis set group =>   1
Atom   8C    basis set group =>   1
Atom   9C    basis set group =>   1
Atom  10C    basis set group =>   1
Atom  11F    basis set group =>   2
Atom  12C    basis set group =>   1
Atom  13C    basis set group =>   1
Atom  14O    basis set group =>   3
Atom  15O    basis set group =>   3
Atom  16C    basis set group =>   1
Atom  17C    basis set group =>   1
Atom  18C    basis set group =>   1
Atom  19F    basis set group =>   2
Atom  20C    basis set group =>   1
Atom  21C    basis set group =>   1
Atom  22C    basis set group =>   1
Atom  23C    basis set group =>   1
Atom  24F    basis set group =>   2
Atom  25C    basis set group =>   1
Atom  26F    basis set group =>   2
Atom  27C    basis set group =>   1
Atom  28F    basis set group =>   2
Atom  29C    basis set group =>   1
Atom  30C    basis set group =>   1
Atom  31C    basis set group =>   1
Atom  32C    basis set group =>   1
Atom  33F    basis set group =>   2
Atom  34C    basis set group =>   1
Atom  35C    basis set group =>   1
Atom  36F    basis set group =>   2
Atom  37C    basis set group =>   1
Atom  38H    basis set group =>   4
Atom  39H    basis set group =>   4
Atom  40H    basis set group =>   4
Atom  41H    basis set group =>   4
Atom  42H    basis set group =>   4
Atom  43H    basis set group =>   4
Atom  44H    basis set group =>   4
Atom  45H    basis set group =>   4
Atom  46H    basis set group =>   4
Atom  47H    basis set group =>   4
Atom  48H    basis set group =>   4
Atom  49H    basis set group =>   4
Atom  50H    basis set group =>   4
Atom  51H    basis set group =>   4
Atom  52H    basis set group =>   4
Atom  53H    basis set group =>   4
-------------------------
ECP PARAMETER INFORMATION
-------------------------

 Group 1, Type C  ECP vDZP-ECP (replacing 2 core electrons, lmax=3)
 Group 2, Type F  ECP vDZP-ECP (replacing 2 core electrons, lmax=3)
 Group 3, Type O  ECP vDZP-ECP (replacing 2 core electrons, lmax=3)

Atom   0C    ECP group =>   1
Atom   1C    ECP group =>   1
Atom   2C    ECP group =>   1
Atom   3C    ECP group =>   1
Atom   4C    ECP group =>   1
Atom   5C    ECP group =>   1
Atom   6F    ECP group =>   2
Atom   7C    ECP group =>   1
Atom   8C    ECP group =>   1
Atom   9C    ECP group =>   1
Atom  10C    ECP group =>   1
Atom  11F    ECP group =>   2
Atom  12C    ECP group =>   1
Atom  13C    ECP group =>   1
Atom  14O    ECP group =>   3
Atom  15O    ECP group =>   3
Atom  16C    ECP group =>   1
Atom  17C    ECP group =>   1
Atom  18C    ECP group =>   1
Atom  19F    ECP group =>   2
Atom  20C    ECP group =>   1
Atom  21C    ECP group =>   1
Atom  22C    ECP group =>   1
Atom  23C    ECP group =>   1
Atom  24F    ECP group =>   2
Atom  25C    ECP group =>   1
Atom  26F    ECP group =>   2
Atom  27C    ECP group =>   1
Atom  28F    ECP group =>   2
Atom  29C    ECP group =>   1
Atom  30C    ECP group =>   1
Atom  31C    ECP group =>   1
Atom  32C    ECP group =>   1
Atom  33F    ECP group =>   2
Atom  34C    ECP group =>   1
Atom  35C    ECP group =>   1
Atom  36F    ECP group =>   2
Atom  37C    ECP group =>   1



           ************************************************************
           *        Program running with 4 parallel MPI-processes     *
           *              working on a common directory               *
           ************************************************************
------------------------------------------------------------------------------
                             ORCA STARTUP CALCULATIONS
                           -- RI-GTO INTEGRALS CHOSEN --
------------------------------------------------------------------------------
------------------------------------------------------------------------------
                   ___                                                        
                  /   \      - P O W E R E D   B Y -                         
                 /     \                                                     
                 |  |  |   _    _      __       _____    __    __             
                 |  |  |  | |  | |    /  \     |  _  \  |  |  /  |          
                  \  \/   | |  | |   /    \    | | | |  |  | /  /          
                 / \  \   | |__| |  /  /\  \   | |_| |  |  |/  /          
                |  |  |   |  __  | /  /__\  \  |    /   |      \           
                |  |  |   | |  | | |   __   |  |    \   |  |\   \          
                \     /   | |  | | |  |  |  |  | |\  \  |  | \   \       
                 \___/    |_|  |_| |__|  |__|  |_| \__\ |__|  \__/        
                                                                              
                      - O R C A' S   B I G   F R I E N D -                    
                                      &                                       
                       - I N T E G R A L  F E E D E R -                       
                                                                              
 v1 FN, 2020, v2 2021, v3 2022-2024                                           
------------------------------------------------------------------------------


----------------------
SHARK INTEGRAL PACKAGE
----------------------

Number of atoms                             ...     54
Number of basis functions                   ...    574
Number of shells                            ...    238
Maximum angular momentum                    ...      2
Integral batch strategy                     ... SHARK/LIBINT Hybrid
RI-J (if used) integral strategy            ... SPLIT-RIJ (Revised 2003 algorithm where possible)
Printlevel                                  ...      1
Contraction scheme used                     ... SEGMENTED contraction
Prescreening option                         ... SCHWARTZ
   Thresh                                   ... 1.000e-10
   Tcut                                     ... 1.000e-11
   Tpresel                                  ... 1.000e-11 
Coulomb Range Separation                    ... NOT USED
Exchange Range Separation                   ... Long Range
   Mu parameter                             ... 3.000e-01
   Scaling (regular/separated)              ... 1.670e-01 8.330e-01
Robust (split-)RI terms used:
  metric    (central integrals)             ... YES
  density   (r.h.s.  integrals)             ... YES
  potential (l.h.s.  integrals)             ... YES
Multipole approximations                    ... NOT USED
Finite Nucleus Model                        ... NOT USED
CABS basis                                  ... NOT available
Auxiliary Coulomb fitting basis             ... AVAILABLE
   # of basis functions in Aux-J            ...   2038
   # of shells in Aux-J                     ...    650
   Maximum angular momentum in Aux-J        ...      4
Auxiliary J/K fitting basis                 ... NOT available
Auxiliary Correlation fitting basis         ... NOT available
Auxiliary 'external' fitting basis          ... NOT available

done (  0.0 sec) Dimension = 238
   => SHARK Basis and OBASIS are compatible. Storing Pre-screening
Shell pair information
Shell pair cut-off parameter TPreSel        ...   1.0e-11
Total number of shell pairs                 ...     28441
Shell pairs after pre-screening             ...     18255
Total number of primitive shell pairs       ...    240572
Primitive shell pairs kept                  ...    100927
          la=0 lb=0:   3857 shell pairs
          la=1 lb=0:   6508 shell pairs
          la=1 lb=1:   2832 shell pairs
          la=2 lb=0:   2521 shell pairs
          la=2 lb=1:   2121 shell pairs
          la=2 lb=2:    416 shell pairs

Checking whether 4 symmetric matrices of dimension 574 fit in memory
:Max Core in MB      =   4000.00
 MB in use           =     36.59
 MB left             =   3963.41
 MB needed           =      5.04
 Data fit in memory  = YES
done (  0.3 sec)
Calculating Nuclear repulsion               ... done (  0.0 sec) ENN=   1922.004471739466 Eh

Diagonalization of the overlap matrix:
Smallest eigenvalue                        ... 2.249e-04
Time for diagonalization                   ...    0.060 sec
Threshold for overlap eigenvalues          ... 1.000e-07
Number of eigenvalues below threshold      ... 0
Time for construction of square roots      ...    0.034 sec
Total time needed                          ...    0.114 sec

-------------------
DFT GRID GENERATION
-------------------

General Integration Accuracy     IntAcc      ... 4.388
Radial Grid Type                 RadialGrid  ... OptM3 with GC (2021)
Angular Grid (max. ang.)         AngularGrid ... 4 (Lebedev-302)
Angular grid pruning method      GridPruning ... 4 (adaptive)
Weight generation scheme         WeightScheme... mBecke (2022)
Basis function cutoff            BFCut       ... 1.0000e-10
Integration weight cutoff        WCut        ... 1.0000e-14
Partially contracted basis set               ... off
Rotationally invariant grid construction     ... off
Angular grids for H and He will be reduced by one unit

Total number of grid points                  ...   278832
Total number of batches                      ...     4383
Average number of points per batch           ...       63
Average number of grid points per atom       ...     5164

--------------------
COSX GRID GENERATION
--------------------

GRIDX 1
-------
General Integration Accuracy     IntAcc      ... 3.816
Radial Grid Type                 RadialGrid  ... OptM3 with GC (2021)
Angular Grid (max. ang.)         AngularGrid ... 1 (Lebedev-50)
Angular grid pruning method      GridPruning ... 4 (adaptive)
Weight generation scheme         WeightScheme... mBecke (2022)
Basis function cutoff            BFCut       ... 1.0000e-10
Integration weight cutoff        WCut        ... 1.0000e-14
Partially contracted basis set               ... on
Rotationally invariant grid construction     ... off
Angular grids for H and He will be reduced by one unit

Total number of grid points                  ...    35300
Total number of batches                      ...      306
Average number of points per batch           ...      115
Average number of grid points per atom       ...      654
UseSFitting                                  ... on

GRIDX 2
-------
General Integration Accuracy     IntAcc      ... 4.020
Radial Grid Type                 RadialGrid  ... OptM3 with GC (2021)
Angular Grid (max. ang.)         AngularGrid ... 2 (Lebedev-110)
Angular grid pruning method      GridPruning ... 4 (adaptive)
Weight generation scheme         WeightScheme... mBecke (2022)
Basis function cutoff            BFCut       ... 1.0000e-10
Integration weight cutoff        WCut        ... 1.0000e-14
Partially contracted basis set               ... on
Rotationally invariant grid construction     ... off
Angular grids for H and He will be reduced by one unit

Total number of grid points                  ...    79149
Total number of batches                      ...      642
Average number of points per batch           ...      123
Average number of grid points per atom       ...     1466
UseSFitting                                  ... on

GRIDX 3
-------
General Integration Accuracy     IntAcc      ... 4.338
Radial Grid Type                 RadialGrid  ... OptM3 with GC (2021)
Angular Grid (max. ang.)         AngularGrid ... 3 (Lebedev-194)
Angular grid pruning method      GridPruning ... 4 (adaptive)
Weight generation scheme         WeightScheme... mBecke (2022)
Basis function cutoff            BFCut       ... 1.0000e-10
Integration weight cutoff        WCut        ... 1.0000e-14
Partially contracted basis set               ... on
Rotationally invariant grid construction     ... off
Angular grids for H and He will be reduced by one unit

Total number of grid points                  ...   173796
Total number of batches                      ...     1385
Average number of points per batch           ...      125
Average number of grid points per atom       ...     3218
UseSFitting                                  ... on
Grids setup in   8.3 sec
Initializing property integral containers    ... done (  0.0 sec)

SHARK setup successfully completed in  11.1 seconds

Maximum memory used throughout the entire STARTUP-calculation: 100.8 MB


           ************************************************************
           *        Program running with 4 parallel MPI-processes     *
           *              working on a common directory               *
           ************************************************************
-------------------------------------------------------------------------------
                                 ORCA GUESS
                   Start orbitals & Density for SCF / CASSCF
-------------------------------------------------------------------------------

------------
SCF SETTINGS
------------
Hamiltonian:
 Density Functional     Method          .... DFT(GTOs)
 Exchange Functional    Exchange        .... WB97X-V
 Correlation Functional Correlation     .... WB97X-V
 Gradients option       PostSCFGGA      .... off
 Hybrid DFT is turned on
   Fraction HF Exchange ScalHFX         ....  0.167000
   Scaling of DF-GGA-X  ScalDFX         ....  0.000000
   Scaling of DF-GGA-C  ScalDFC         ....  1.000000
   Scaling of DF-LDA-C  ScalLDAC        ....  1.000000
   Perturbative correction              ....  0.000000
 Long-range corrected/Screened/Range-Separated Hybrid DFT is turned on
   Amount of maximum screened exact exchange              ....  0.833000
   Range separation parameter mu (erf(mu*r12)/r12)        ....  0.300000
   NL short-range parameter             ....  6.000000
   NL long-range parameter              ....  0.010000
 RI-approximation to the Coulomb term is turned on
   Number of AuxJ basis functions       .... 2038
   RIJ-COSX (HFX calculated with COS-X)).... on


General Settings:
 Integral files         IntName         .... conf_021
 Hartree-Fock type      HFTyp           .... RHF
 Total Charge           Charge          ....    0
 Multiplicity           Mult            ....    1
 Number of Electrons    NEL             ....  196
 Basis Dimension        Dim             ....  574
 Nuclear Repulsion      ENuc            ....   1922.0044717395 Eh

Convergence Acceleration:
 AO-DIIS                CNVDIIS         .... on
   Start iteration      DIISMaxIt       ....    12
   Startup error        DIISStart       ....  0.200000
   # of expansion vecs  DIISMaxEq       ....     5
   Bias factor          DIISBfac        ....   1.050
   Max. coefficient     DIISMaxC        ....  10.000
 MO-DIIS                CNVKDIIS        .... off
 Trust-Rad. Augm. Hess. CNVTRAH         .... auto
   Auto Start mean grad. ratio tolernc. ....  1.125000
   Auto Start start iteration           ....    50
   Auto Start num. interpolation iter.  ....    10
   Max. Number of Micro iterations      ....    24
   Max. Number of Macro iterations      .... Maxiter - #DIIS iter
   Number of Davidson start vectors     ....     2
   Converg. threshold    (grad. norm)   ....   5.000e-05
   Grad. Scal. Fac. for Micro threshold ....   0.100
   Minimum threshold for Micro iter.    ....   1.000e-02
   NR start threshold (gradient norm)   ....   1.000e-04
   Initial trust radius                 ....   0.400
   Minimum AH scaling param. (alpha)    ....   1.000
   Maximum AH scaling param. (alpha)    .... 1000.000
   Quad. conv. algorithm                .... NR
   White noise on init. David. guess    .... on
   Maximum white noise                  ....   0.010
   Pseudo random numbers                .... off
   Inactive MOs                         .... canonical
   Orbital update algorithm             .... Taylor
   Preconditioner                       .... Diag
   Full preconditioner red. dimension   ....   250
 SOSCF                 CNVSOSCF           .... on
   Start iteration     SOSCFMaxIt         ....   150
   Startup grad/error  SOSCFStart         ....  0.003300
   Hessian update      SOSCFHessUp        .... L-BFGS
   Autom. constraints  SOSCFAutoConstrain .... off
 Level Shifting         CNVShift        .... on
   Level shift para.    LevelShift      ....    0.2500
   Turn off err/grad.   ShiftErr        ....    0.0010
 Zerner damping         CNVZerner       .... off
 Static damping         CNVDamp         .... on
   Fraction old density DampFac         ....    0.7000
   Max. Damping (<1)    DampMax         ....    0.9800
   Min. Damping (>=0)   DampMin         ....    0.0000
   Turn off err/grad.   DampErr         ....    0.1000

SCF Procedure:
 Maximum # iterations   MaxIter         ....   125
 SCF integral mode      SCFMode         .... Direct
   Integral package                     .... SHARK and LIBINT hybrid scheme
 Reset frequency        DirectResetFreq ....    20
 Integral Threshold     Thresh          ....  1.000e-10 Eh
 Primitive CutOff       TCut            ....  1.000e-11 Eh

Convergence Tolerance:
 Convergence Check Mode ConvCheckMode   .... Total+1el-Energy
 Convergence forced     ConvForced      .... 0
 Energy Change          TolE            ....  1.000e-06 Eh
 1-El. energy change                    ....  1.000e-03 Eh
 Orbital Gradient       TolG            ....  5.000e-05
 Orbital Rotation angle TolX            ....  5.000e-05
 DIIS Error             TolErr          ....  1.000e-06

------------------------------
INITIAL GUESS: MODEL POTENTIAL
------------------------------
Loading Hartree-Fock densities                     ... done
Atomic calculation to generate a density for atom 0 (C  with ECP)
  Multiplicity assumed   :    1
  Atomic configuration   : 1s2 2s2 2p2 
  Number of open shells  : 1
  Command: /opt/apps/pkg/applications/orca/orca_6_1_0_linux_x86-64_shared_openmpi418/orca conf_021_atom6.inp "" > conf_021_atom6.out
Returned from the atomic calculation with res=0
Atomic calculation to generate a density for atom 6 (F  with ECP)
  Multiplicity assumed   :    2
  Atomic configuration   : 1s2 2s2 2p5 
  Number of open shells  : 1
  Command: /opt/apps/pkg/applications/orca/orca_6_1_0_linux_x86-64_shared_openmpi418/orca conf_021_atom9.inp "" > conf_021_atom9.out
Returned from the atomic calculation with res=0
Atomic calculation to generate a density for atom 14 (O  with ECP)
  Multiplicity assumed   :    3
  Atomic configuration   : 1s2 2s2 2p4 
  Number of open shells  : 1
  Command: /opt/apps/pkg/applications/orca/orca_6_1_0_linux_x86-64_shared_openmpi418/orca conf_021_atom8.inp "" > conf_021_atom8.out
Returned from the atomic calculation with res=0
Calculating cut-offs                               ... done
Initializing the effective Hamiltonian             ... done
Setting up the integral package (SHARK)            ... done
done (   1.8 sec)
done (   1.7 sec)
Mapping shells                                     ... done
Starting the XC term evaluation                    ... done (   0.5 sec)
  promolecular density results
     # of electrons  =    271.988716993
     EX              =   -168.151501728
     EC              =    -11.745585480
     EX+EC           =   -179.897087208
Transforming the Hamiltonian                       ... done (   0.1 sec)
done (   0.1 sec)
Back transforming the eigenvectors                 ... done (   0.3 sec)
done
                      ------------------
                      INITIAL GUESS DONE (   8.8 sec)
                      ------------------
             **** ENERGY FILE WAS UPDATED (conf_021.en.tmp) ****
Finished Guess after  10.9 sec
Maximum memory used throughout the entire GUESS-calculation: 55.2 MB


           ************************************************************
           *        Program running with 4 parallel MPI-processes     *
           *              working on a common directory               *
           ************************************************************

-------------------------------------------------------------------------------------------
                                      ORCA LEAN-SCF
                              memory conserving SCF solver
-------------------------------------------------------------------------------------------

----------------------------------------D-I-I-S--------------------------------------------
Iteration    Energy (Eh)           Delta-E    RMSDP     MaxDP     DIISErr   Damp  Time(sec)
-------------------------------------------------------------------------------------------
               ***  Starting incremental Fock matrix formation  ***
    1    -394.3773553906230518     0.00e+00  5.86e-03  9.55e-02  2.09e-01  0.700  74.7
    2    -394.9458871648635068    -5.69e-01  4.24e-03  6.80e-02  1.13e-01  0.700  31.6
                               ***Turning on AO-DIIS***
    3    -395.2099980415268874    -2.64e-01  2.44e-03  3.47e-02  5.91e-02  0.700  30.0
    4    -395.3667679462623710    -1.57e-01  5.36e-03  7.24e-02  3.43e-02  0.000  29.0
    5    -395.7081569808174208    -3.41e-01  4.51e-04  6.86e-03  7.20e-03  0.000  32.6
    6    -395.7099797346172636    -1.82e-03  2.36e-04  4.65e-03  3.40e-03  0.000  25.3
                              *** Initializing SOSCF ***
---------------------------------------S-O-S-C-F--------------------------------------
Iteration    Energy (Eh)           Delta-E    RMSDP     MaxDP     MaxGrad    Time(sec)
--------------------------------------------------------------------------------------
    7    -395.7105017303642853    -5.22e-04  1.24e-04  3.14e-03  2.21e-03    22.8
               *** Restarting incremental Fock matrix formation ***
    8    -395.7107446579825591    -2.43e-04  8.13e-05  1.63e-03  1.33e-03    69.8
    9    -395.7107994992970816    -5.48e-05  9.88e-05  2.64e-03  6.25e-04    43.0
   10    -395.7108139670144737    -1.45e-05  3.08e-05  1.44e-03  2.57e-04    42.5
   11    -395.7108203575862717    -6.39e-06  1.12e-05  3.00e-04  5.88e-05    36.9
   12    -395.7108205263198215    -1.69e-07  5.09e-06  1.03e-04  4.68e-05    28.8
                 **** Energy Check signals convergence ****

               *****************************************************
               *                     SUCCESS                       *
               *           SCF CONVERGED AFTER  12 CYCLES          *
               *****************************************************

 done (  130.830 sec)
Old exchange energy                            :    -40.322517134 Eh
New exchange energy                            :    -40.322498167 Eh
Exchange energy change after final integration :      0.000018966 Eh
Total energy after final integration           :   -395.710801841 Eh
             **** ENERGY FILE WAS UPDATED (conf_021.en.tmp) ****

----------------
TOTAL SCF ENERGY
----------------

Total Energy       :       -395.71080184077732 Eh          -10767.83834 eV

Components:
Nuclear Repulsion  :       1922.00447173946577 Eh           52300.40058 eV
Electronic Energy  :      -2317.71529254631514 Eh          -63068.23944 eV
One Electron Energy:      -4460.09661435648741 Eh         -121365.39897 eV
Two Electron Energy:       2142.38132181017227 Eh           58297.15954 eV

Virial components:
Potential Energy   :       -709.38058381223902 Eh          -19303.22704 eV
Kinetic Energy     :        313.66978197146170 Eh            8535.38870 eV
Virial Ratio       :          2.26155219464775

DFT components:
N(Alpha)           :       97.999916422627 electrons
N(Beta)            :       97.999916422627 electrons
N(Total)           :      195.999832845255 electrons
E(X)               :      -51.261228621036 Eh       
E(C)               :       -7.928388370041 Eh       
E(XC)              :      -59.189616991077 Eh       

---------------
SCF CONVERGENCE
---------------

  Last Energy change         ...    1.6873e-07  Tolerance :   1.0000e-06
  Last MAX-Density change    ...    1.0261e-04  Tolerance :   1.0000e-05
  Last RMS-Density change    ...    5.0948e-06  Tolerance :   1.0000e-06
  Last DIIS Error            ...    2.2110e-03  Tolerance :   1.0000e-06
  Last Orbital Gradient      ...    4.6814e-05  Tolerance :   5.0000e-05
  Last Orbital Rotation      ...    1.7692e-04  Tolerance :   5.0000e-05


----------------
ORBITAL ENERGIES
----------------

  NO   OCC          E(Eh)            E(eV) 
   0   2.0000      -1.387290       -37.7501 
   1   2.0000      -1.382178       -37.6110 
   2   2.0000      -1.379785       -37.5459 
   3   2.0000      -1.379666       -37.5426 
   4   2.0000      -1.378930       -37.5226 
   5   2.0000      -1.376236       -37.4493 
   6   2.0000      -1.370792       -37.3011 
   7   2.0000      -1.366925       -37.1959 
   8   2.0000      -1.278421       -34.7876 
   9   2.0000      -1.184139       -32.2221 
  10   2.0000      -1.059908       -28.8416 
  11   2.0000      -1.052620       -28.6432 
  12   2.0000      -1.041507       -28.3409 
  13   2.0000      -1.030110       -28.0307 
  14   2.0000      -0.985266       -26.8104 
  15   2.0000      -0.962891       -26.2016 
  16   2.0000      -0.949837       -25.8464 
  17   2.0000      -0.922259       -25.0959 
  18   2.0000      -0.921151       -25.0658 
  19   2.0000      -0.919830       -25.0299 
  20   2.0000      -0.916422       -24.9371 
  21   2.0000      -0.915489       -24.9117 
  22   2.0000      -0.898983       -24.4626 
  23   2.0000      -0.857979       -23.3468 
  24   2.0000      -0.834206       -22.6999 
  25   2.0000      -0.801174       -21.8010 
  26   2.0000      -0.795811       -21.6551 
  27   2.0000      -0.793177       -21.5834 
  28   2.0000      -0.780919       -21.2499 
  29   2.0000      -0.779354       -21.2073 
  30   2.0000      -0.768878       -20.9222 
  31   2.0000      -0.759976       -20.6800 
  32   2.0000      -0.738345       -20.0914 
  33   2.0000      -0.737014       -20.0552 
  34   2.0000      -0.713856       -19.4250 
  35   2.0000      -0.709631       -19.3100 
  36   2.0000      -0.694826       -18.9072 
  37   2.0000      -0.689191       -18.7538 
  38   2.0000      -0.685057       -18.6414 
  39   2.0000      -0.681844       -18.5539 
  40   2.0000      -0.678430       -18.4610 
  41   2.0000      -0.669002       -18.2045 
  42   2.0000      -0.661798       -18.0084 
  43   2.0000      -0.644517       -17.5382 
  44   2.0000      -0.640794       -17.4369 
  45   2.0000      -0.640103       -17.4181 
  46   2.0000      -0.639406       -17.3991 
  47   2.0000      -0.634571       -17.2676 
  48   2.0000      -0.632388       -17.2082 
  49   2.0000      -0.630931       -17.1685 
  50   2.0000      -0.622591       -16.9416 
  51   2.0000      -0.619796       -16.8655 
  52   2.0000      -0.615932       -16.7604 
  53   2.0000      -0.614900       -16.7323 
  54   2.0000      -0.611158       -16.6305 
  55   2.0000      -0.610533       -16.6134 
  56   2.0000      -0.608174       -16.5493 
  57   2.0000      -0.605934       -16.4883 
  58   2.0000      -0.603715       -16.4279 
  59   2.0000      -0.599088       -16.3020 
  60   2.0000      -0.592841       -16.1320 
  61   2.0000      -0.588253       -16.0072 
  62   2.0000      -0.585626       -15.9357 
  63   2.0000      -0.578957       -15.7542 
  64   2.0000      -0.572064       -15.5666 
  65   2.0000      -0.567334       -15.4380 
  66   2.0000      -0.554541       -15.0898 
  67   2.0000      -0.552500       -15.0343 
  68   2.0000      -0.547799       -14.9064 
  69   2.0000      -0.540064       -14.6959 
  70   2.0000      -0.535873       -14.5819 
  71   2.0000      -0.534087       -14.5332 
  72   2.0000      -0.532596       -14.4927 
  73   2.0000      -0.525247       -14.2927 
  74   2.0000      -0.521787       -14.1985 
  75   2.0000      -0.519227       -14.1289 
  76   2.0000      -0.512203       -13.9377 
  77   2.0000      -0.510370       -13.8879 
  78   2.0000      -0.501933       -13.6583 
  79   2.0000      -0.499669       -13.5967 
  80   2.0000      -0.498433       -13.5631 
  81   2.0000      -0.493451       -13.4275 
  82   2.0000      -0.489235       -13.3128 
  83   2.0000      -0.485697       -13.2165 
  84   2.0000      -0.483825       -13.1656 
  85   2.0000      -0.469350       -12.7717 
  86   2.0000      -0.463573       -12.6145 
  87   2.0000      -0.462173       -12.5764 
  88   2.0000      -0.459648       -12.5077 
  89   2.0000      -0.422448       -11.4954 
  90   2.0000      -0.401831       -10.9344 
  91   2.0000      -0.388425       -10.5696 
  92   2.0000      -0.370806       -10.0901 
  93   2.0000      -0.369641       -10.0584 
  94   2.0000      -0.368822       -10.0362 
  95   2.0000      -0.367959       -10.0127 
  96   2.0000      -0.351673        -9.5695 
  97   2.0000      -0.335703        -9.1350 
  98   0.0000      -0.010628        -0.2892 
  99   0.0000       0.017065         0.4644 
 100   0.0000       0.045593         1.2406 
 101   0.0000       0.046964         1.2779 
 102   0.0000       0.049124         1.3367 
 103   0.0000       0.049620         1.3502 
 104   0.0000       0.051019         1.3883 
 105   0.0000       0.072366         1.9692 
 106   0.0000       0.077957         2.1213 
 107   0.0000       0.081378         2.2144 
 108   0.0000       0.086373         2.3503 
*Only the first 10 virtual orbitals were printed.

                    ********************************
                    * MULLIKEN POPULATION ANALYSIS *
                    ********************************

-----------------------
MULLIKEN ATOMIC CHARGES
-----------------------
   0 C :   -0.053741
   1 C :   -0.089442
   2 C :   -0.073242
   3 C :   -0.017853
   4 C :    0.031452
   5 C :    0.192835
   6 F :   -0.227392
   7 C :   -0.135429
   8 C :   -0.085687
   9 C :    0.070044
  10 C :    0.242200
  11 F :   -0.216438
  12 C :   -0.156261
  13 C :    0.285641
  14 O :   -0.278919
  15 O :   -0.222254
  16 C :    0.063655
  17 C :    0.049972
  18 C :    0.177514
  19 F :   -0.228706
  20 C :   -0.112419
  21 C :   -0.078707
  22 C :    0.026060
  23 C :    0.173496
  24 F :   -0.217345
  25 C :    0.193013
  26 F :   -0.209580
  27 C :    0.171698
  28 F :   -0.215002
  29 C :    0.061705
  30 C :    0.045188
  31 C :    0.045641
  32 C :    0.227072
  33 F :   -0.204638
  34 C :    0.065498
  35 C :    0.183021
  36 F :   -0.228151
  37 C :    0.052063
  38 H :    0.035472
  39 H :    0.027831
  40 H :    0.027665
  41 H :    0.047451
  42 H :    0.047035
  43 H :    0.060654
  44 H :    0.060123
  45 H :    0.032648
  46 H :    0.048845
  47 H :    0.062819
  48 H :    0.043768
  49 H :    0.047865
  50 H :    0.037220
  51 H :    0.032691
  52 H :    0.050187
  53 H :    0.031165
Sum of atomic charges:   -0.0000000

--------------------------------
MULLIKEN REDUCED ORBITAL CHARGES
--------------------------------
  0 C s       :     0.930705  s :     0.930705
      pz      :     1.050059  p :     3.048534
      px      :     0.951265
      py      :     1.047209
      dz2     :     0.013042  d :     0.074502
      dxz     :     0.016755
      dyz     :     0.012332
      dx2y2   :     0.015225
      dxy     :     0.017147

  1 C s       :     0.995858  s :     0.995858
      pz      :     0.982704  p :     2.991989
      px      :     0.977073
      py      :     1.032212
      dz2     :     0.022237  d :     0.101594
      dxz     :     0.020667
      dyz     :     0.016632
      dx2y2   :     0.022248
      dxy     :     0.019810

  2 C s       :     0.981507  s :     0.981507
      pz      :     1.012758  p :     2.990814
      px      :     0.932865
      py      :     1.045191
      dz2     :     0.023653  d :     0.100921
      dxz     :     0.018202
      dyz     :     0.015709
      dx2y2   :     0.024655
      dxy     :     0.018701

  3 C s       :     1.037373  s :     1.037373
      pz      :     0.961248  p :     2.852347
      px      :     0.963325
      py      :     0.927775
      dz2     :     0.030035  d :     0.128133
      dxz     :     0.034012
      dyz     :     0.017338
      dx2y2   :     0.021158
      dxy     :     0.025591

  4 C s       :     0.963746  s :     0.963746
      pz      :     0.984087  p :     2.917810
      px      :     0.926295
      py      :     1.007428
      dz2     :     0.019096  d :     0.086993
      dxz     :     0.023103
      dyz     :     0.010248
      dx2y2   :     0.015115
      dxy     :     0.019430

  5 C s       :     1.059176  s :     1.059176
      pz      :     0.766539  p :     2.562445
      px      :     0.910305
      py      :     0.885601
      dz2     :     0.045270  d :     0.185545
      dxz     :     0.049430
      dyz     :     0.027386
      dx2y2   :     0.026774
      dxy     :     0.036686

  6 F s       :     1.885971  s :     1.885971
      pz      :     1.636729  p :     5.317830
      px      :     1.850998
      py      :     1.830102
      dz2     :     0.006305  d :     0.023591
      dxz     :     0.006037
      dyz     :     0.005931
      dx2y2   :     0.002524
      dxy     :     0.002795

  7 C s       :     0.989224  s :     0.989224
      pz      :     1.010586  p :     3.035080
      px      :     0.973740
      py      :     1.050755
      dz2     :     0.022252  d :     0.111124
      dxz     :     0.033757
      dyz     :     0.013357
      dx2y2   :     0.018363
      dxy     :     0.023396

  8 C s       :     1.014929  s :     1.014929
      pz      :     0.945093  p :     2.940143
      px      :     0.978059
      py      :     1.016992
      dz2     :     0.011556  d :     0.130615
      dxz     :     0.020455
      dyz     :     0.022987
      dx2y2   :     0.038558
      dxy     :     0.037060

  9 C s       :     0.968843  s :     0.968843
      pz      :     0.991684  p :     2.874171
      px      :     0.895696
      py      :     0.986791
      dz2     :     0.006708  d :     0.086942
      dxz     :     0.019318
      dyz     :     0.010134
      dx2y2   :     0.028538
      dxy     :     0.022244

 10 C s       :     1.058112  s :     1.058112
      pz      :     0.884075  p :     2.511547
      px      :     0.865219
      py      :     0.762254
      dz2     :     0.015101  d :     0.188141
      dxz     :     0.034517
      dyz     :     0.032569
      dx2y2   :     0.053927
      dxy     :     0.052027

 11 F s       :     1.884601  s :     1.884601
      pz      :     1.872034  p :     5.307882
      px      :     1.807357
      py      :     1.628491
      dz2     :     0.003135  d :     0.023954
      dxz     :     0.002835
      dyz     :     0.005124
      dx2y2   :     0.005560
      dxy     :     0.007299

 12 C s       :     1.010993  s :     1.010993
      pz      :     1.147071  p :     3.046360
      px      :     0.914269
      py      :     0.985020
      dz2     :     0.010217  d :     0.098909
      dxz     :     0.015453
      dyz     :     0.018420
      dx2y2   :     0.027074
      dxy     :     0.027744

 13 C s       :     1.078524  s :     1.078524
      pz      :     0.683074  p :     2.356006
      px      :     0.899843
      py      :     0.773089
      dz2     :     0.030564  d :     0.279829
      dxz     :     0.036021
      dyz     :     0.052153
      dx2y2   :     0.093694
      dxy     :     0.067397

 14 O s       :     1.762591  s :     1.762591
      pz      :     1.396825  p :     4.477491
      px      :     1.678851
      py      :     1.401815
      dz2     :     0.006214  d :     0.038838
      dxz     :     0.004414
      dyz     :     0.009862
      dx2y2   :     0.009412
      dxy     :     0.008936

 15 O s       :     1.652006  s :     1.652006
      pz      :     1.697444  p :     4.527364
      px      :     1.317317
      py      :     1.512602
      dz2     :     0.005570  d :     0.042884
      dxz     :     0.007371
      dyz     :     0.006741
      dx2y2   :     0.014969
      dxy     :     0.008234

 16 C s       :     1.040216  s :     1.040216
      pz      :     0.976520  p :     2.724950
      px      :     0.709542
      py      :     1.038888
      dz2     :     0.008119  d :     0.171179
      dxz     :     0.036686
      dyz     :     0.025961
      dx2y2   :     0.051271
      dxy     :     0.049141

 17 C s       :     0.969166  s :     0.969166
      pz      :     0.988767  p :     2.896721
      px      :     0.916558
      py      :     0.991397
      dz2     :     0.005377  d :     0.084141
      dxz     :     0.020503
      dyz     :     0.010607
      dx2y2   :     0.025275
      dxy     :     0.022380

 18 C s       :     1.060101  s :     1.060101
      pz      :     0.940485  p :     2.578342
      px      :     0.838345
      py      :     0.799511
      dz2     :     0.008577  d :     0.184042
      dxz     :     0.032422
      dyz     :     0.033531
      dx2y2   :     0.056985
      dxy     :     0.052527

 19 F s       :     1.885920  s :     1.885920
      pz      :     1.908942  p :     5.319164
      px      :     1.746388
      py      :     1.663835
      dz2     :     0.002739  d :     0.023622
      dxz     :     0.003048
      dyz     :     0.004188
      dx2y2   :     0.005362
      dxy     :     0.008285

 20 C s       :     0.993115  s :     0.993115
      pz      :     1.026463  p :     3.001085
      px      :     0.985532
      py      :     0.989091
      dz2     :     0.006564  d :     0.118219
      dxz     :     0.020418
      dyz     :     0.021931
      dx2y2   :     0.036067
      dxy     :     0.033239

 21 C s       :     0.999420  s :     0.999420
      pz      :     1.001191  p :     2.950938
      px      :     0.986026
      py      :     0.963721
      dz2     :     0.028089  d :     0.128348
      dxz     :     0.030880
      dyz     :     0.014626
      dx2y2   :     0.028766
      dxy     :     0.025988

 22 C s       :     0.968791  s :     0.968791
      pz      :     1.016004  p :     2.916226
      px      :     0.941130
      py      :     0.959091
      dz2     :     0.014826  d :     0.088923
      dxz     :     0.021897
      dyz     :     0.010965
      dx2y2   :     0.019749
      dxy     :     0.021486

 23 C s       :     1.058084  s :     1.058084
      pz      :     0.830934  p :     2.585532
      px      :     0.938542
      py      :     0.816056
      dz2     :     0.040458  d :     0.182887
      dxz     :     0.040650
      dyz     :     0.023864
      dx2y2   :     0.035413
      dxy     :     0.042502

 24 F s       :     1.888262  s :     1.888262
      pz      :     1.735232  p :     5.305229
      px      :     1.879916
      py      :     1.690081
      dz2     :     0.004848  d :     0.023853
      dxz     :     0.003847
      dyz     :     0.006717
      dx2y2   :     0.004350
      dxy     :     0.004093

 25 C s       :     1.045698  s :     1.045698
      pz      :     0.960270  p :     2.586139
      px      :     0.662230
      py      :     0.963638
      dz2     :     0.027943  d :     0.175150
      dxz     :     0.049949
      dyz     :     0.012350
      dx2y2   :     0.037451
      dxy     :     0.047457

 26 F s       :     1.888966  s :     1.888966
      pz      :     1.931048  p :     5.296194
      px      :     1.462213
      py      :     1.902934
      dz2     :     0.002868  d :     0.024421
      dxz     :     0.006058
      dyz     :     0.000477
      dx2y2   :     0.008115
      dxy     :     0.006902

 27 C s       :     1.058102  s :     1.058102
      pz      :     0.818451  p :     2.586783
      px      :     0.869274
      py      :     0.899058
      dz2     :     0.040648  d :     0.183417
      dxz     :     0.042705
      dyz     :     0.023693
      dx2y2   :     0.039098
      dxy     :     0.037274

 28 F s       :     1.888011  s :     1.888011
      pz      :     1.703145  p :     5.303074
      px      :     1.777551
      py      :     1.822377
      dz2     :     0.005431  d :     0.023917
      dxz     :     0.006225
      dyz     :     0.004680
      dx2y2   :     0.003106
      dxy     :     0.004474

 29 C s       :     0.974055  s :     0.974055
      pz      :     0.987189  p :     2.875513
      px      :     0.901060
      py      :     0.987265
      dz2     :     0.015514  d :     0.088727
      dxz     :     0.019936
      dyz     :     0.012796
      dx2y2   :     0.019858
      dxy     :     0.020623

 30 C s       :     0.982079  s :     0.982079
      pz      :     0.943157  p :     2.874682
      px      :     0.942079
      py      :     0.989446
      dz2     :     0.005326  d :     0.098051
      dxz     :     0.024287
      dyz     :     0.008786
      dx2y2   :     0.030567
      dxy     :     0.029086

 31 C s       :     0.976566  s :     0.976566
      pz      :     0.973167  p :     2.888232
      px      :     0.960383
      py      :     0.954681
      dz2     :     0.004870  d :     0.089562
      dxz     :     0.015666
      dyz     :     0.014050
      dx2y2   :     0.023084
      dxy     :     0.031891

 32 C s       :     1.064627  s :     1.064627
      pz      :     0.883509  p :     2.518784
      px      :     0.909243
      py      :     0.726031
      dz2     :     0.015020  d :     0.189517
      dxz     :     0.033022
      dyz     :     0.034505
      dx2y2   :     0.052620
      dxy     :     0.054350

 33 F s       :     1.884297  s :     1.884297
      pz      :     1.872268  p :     5.296048
      px      :     1.863216
      py      :     1.560564
      dz2     :     0.003107  d :     0.024294
      dxz     :     0.001916
      dyz     :     0.006084
      dx2y2   :     0.006438
      dxy     :     0.006749

 34 C s       :     0.970241  s :     0.970241
      pz      :     0.990815  p :     2.877458
      px      :     0.910885
      py      :     0.975758
      dz2     :     0.006528  d :     0.086803
      dxz     :     0.018113
      dyz     :     0.011414
      dx2y2   :     0.026402
      dxy     :     0.024346

 35 C s       :     1.063417  s :     1.063417
      pz      :     0.753436  p :     2.568230
      px      :     0.916815
      py      :     0.897979
      dz2     :     0.045444  d :     0.185332
      dxz     :     0.049719
      dyz     :     0.027334
      dx2y2   :     0.027154
      dxy     :     0.035681

 36 F s       :     1.886157  s :     1.886157
      pz      :     1.628169  p :     5.318413
      px      :     1.832621
      py      :     1.857622
      dz2     :     0.006528  d :     0.023580
      dxz     :     0.006543
      dyz     :     0.005442
      dx2y2   :     0.002272
      dxy     :     0.002796

 37 C s       :     0.953133  s :     0.953133
      pz      :     0.990936  p :     2.907401
      px      :     0.905941
      py      :     1.010524
      dz2     :     0.019450  d :     0.087403
      dxz     :     0.022039
      dyz     :     0.011555
      dx2y2   :     0.015014
      dxy     :     0.019345

 38 H s       :     0.919453  s :     0.919453
      pz      :     0.017987  p :     0.045075
      px      :     0.013900
      py      :     0.013188

 39 H s       :     0.927337  s :     0.927337
      pz      :     0.010877  p :     0.044832
      px      :     0.012550
      py      :     0.021405

 40 H s       :     0.927508  s :     0.927508
      pz      :     0.019505  p :     0.044827
      px      :     0.011495
      py      :     0.013827

 41 H s       :     0.909607  s :     0.909607
      pz      :     0.019240  p :     0.042943
      px      :     0.010711
      py      :     0.012992

 42 H s       :     0.910040  s :     0.910040
      pz      :     0.009943  p :     0.042924
      px      :     0.011532
      py      :     0.021449

 43 H s       :     0.895886  s :     0.895886
      pz      :     0.010222  p :     0.043459
      px      :     0.011656
      py      :     0.021582

 44 H s       :     0.896378  s :     0.896378
      pz      :     0.019491  p :     0.043499
      px      :     0.010661
      py      :     0.013348

 45 H s       :     0.916109  s :     0.916109
      pz      :     0.021508  p :     0.051243
      px      :     0.013740
      py      :     0.015994

 46 H s       :     0.898851  s :     0.898851
      pz      :     0.015595  p :     0.052305
      px      :     0.012968
      py      :     0.023742

 47 H s       :     0.882111  s :     0.882111
      pz      :     0.014332  p :     0.055070
      px      :     0.013085
      py      :     0.027653

 48 H s       :     0.903736  s :     0.903736
      pz      :     0.020564  p :     0.052496
      px      :     0.015938
      py      :     0.015994

 49 H s       :     0.899824  s :     0.899824
      pz      :     0.018728  p :     0.052311
      px      :     0.012401
      py      :     0.021182

 50 H s       :     0.911308  s :     0.911308
      pz      :     0.014403  p :     0.051472
      px      :     0.011940
      py      :     0.025129

 51 H s       :     0.916201  s :     0.916201
      pz      :     0.014933  p :     0.051108
      px      :     0.017853
      py      :     0.018322

 52 H s       :     0.897614  s :     0.897614
      pz      :     0.015654  p :     0.052199
      px      :     0.015092
      py      :     0.021453

 53 H s       :     0.915271  s :     0.915271
      pz      :     0.021755  p :     0.053564
      px      :     0.014115
      py      :     0.017694



                     *******************************
                     * LOEWDIN POPULATION ANALYSIS *
                     *******************************

----------------------
LOEWDIN ATOMIC CHARGES
----------------------
   0 C :   -0.108126
   1 C :   -0.088073
   2 C :   -0.073254
   3 C :   -0.014475
   4 C :   -0.030851
   5 C :    0.046579
   6 F :   -0.066748
   7 C :   -0.038671
   8 C :   -0.016786
   9 C :   -0.016734
  10 C :    0.052699
  11 F :   -0.059948
  12 C :   -0.030891
  13 C :   -0.026922
  14 O :   -0.095705
  15 O :    0.033916
  16 C :   -0.009013
  17 C :   -0.010012
  18 C :    0.045453
  19 F :   -0.066789
  20 C :   -0.039727
  21 C :   -0.031632
  22 C :   -0.021798
  23 C :    0.037257
  24 F :   -0.062667
  25 C :    0.038315
  26 F :   -0.056074
  27 C :    0.038659
  28 F :   -0.060393
  29 C :   -0.012835
  30 C :   -0.017460
  31 C :   -0.028922
  32 C :    0.056610
  33 F :   -0.049462
  34 C :   -0.015073
  35 C :    0.048730
  36 F :   -0.066925
  37 C :   -0.034462
  38 H :    0.046459
  39 H :    0.043527
  40 H :    0.043433
  41 H :    0.045818
  42 H :    0.045616
  43 H :    0.058431
  44 H :    0.058364
  45 H :    0.055555
  46 H :    0.058642
  47 H :    0.057913
  48 H :    0.056656
  49 H :    0.058999
  50 H :    0.054878
  51 H :    0.055785
  52 H :    0.059294
  53 H :    0.052839

-------------------------------
LOEWDIN REDUCED ORBITAL CHARGES
-------------------------------
  0 C s       :     0.766049  s :     0.766049
      pz      :     1.066159  p :     3.096571
      px      :     0.962440
      py      :     1.067972
      dz2     :     0.041564  d :     0.245506
      dxz     :     0.056537
      dyz     :     0.040475
      dx2y2   :     0.047829
      dxy     :     0.059101

[...]
  28 F       0.088750     -0.096470     -0.069496      0.031973      0.047089      0.007128     -0.091590     -0.067559      0.000672      0.060999
  29 C       0.535932     -0.109866      0.069852      0.251192      0.210419     -0.054615     -0.136275     -0.160010      0.062526      0.062061
  30 C      -0.368006     -0.129792      0.063781     -0.304897      0.049537      0.271223      0.081401     -0.028618     -0.021979      0.072335
  31 C       0.509135     -0.606868      0.050029      0.207647     -0.005551     -0.220929     -0.023282     -0.029962     -0.027318      0.038675
  32 C      -0.460060      0.127176      0.037820      0.147584      0.039979      0.226471      0.093362     -0.057982     -0.012352      0.066528
  33 F       0.008225      0.071357     -0.088874     -0.001768     -0.004748     -0.130309     -0.043850      0.017396      0.071525     -0.061084
  34 C       0.680798      0.234786     -0.162878      0.082571     -0.030691     -0.254881     -0.096422     -0.027558      0.091031     -0.016537
  35 C      -0.519560     -0.080901     -0.180157      0.020376     -0.076944     -0.019421      0.142916      0.175266     -0.101800     -0.027941
  36 F      -0.019414      0.121208      0.008833      0.002052     -0.023318     -0.002599     -0.073736     -0.113271      0.033188     -0.068432
  37 C       0.522996      0.130329     -0.064292     -0.078298     -0.102499     -0.011163     -0.139102     -0.249917      0.021956     -0.117094
  38 H       0.009260     -0.034830     -0.056579     -0.010230     -0.015264     -0.007837      0.000660     -0.005213     -0.019985     -0.003222
  39 H       0.000830      0.049575     -0.004516      0.016893      0.002179     -0.006347      0.000940     -0.010106     -0.003023      0.024374
  40 H      -0.005928     -0.037070      0.041210     -0.010259      0.015641     -0.013632     -0.001813     -0.008174      0.013648     -0.005176
  41 H       0.000057      0.060183     -0.027318      0.021647     -0.012261      0.006634      0.001875      0.005097     -0.007076      0.011439
  42 H      -0.010824     -0.045871      0.031502     -0.020560      0.009854      0.002878      0.000120      0.004015      0.010124     -0.024508
  43 H       0.016850      0.044265     -0.030214      0.015473     -0.006030     -0.000819     -0.001198     -0.002073     -0.008208      0.023299
  44 H       0.009113     -0.057112      0.027827     -0.015851      0.010418     -0.004661     -0.001731     -0.004334      0.006074     -0.011214
  45 H       0.033844      0.012561      0.032798      0.005142      0.012650      0.008431     -0.000525      0.008551      0.010603      0.006798
  46 H       0.034973     -0.040750     -0.008713     -0.015929     -0.001991      0.009184      0.000025      0.007292     -0.005323     -0.012252
  47 H       0.018419      0.052850     -0.003565      0.017386      0.001574      0.006491     -0.000410      0.003765     -0.001936      0.015297
  48 H       0.035576     -0.013936     -0.034827     -0.003105     -0.015879      0.010109      0.000258      0.010251     -0.013386     -0.006266
  49 H       0.031216      0.031655      0.028008      0.012941      0.011460      0.007079      0.000945      0.006563      0.011703      0.012204
  50 H      -0.022350     -0.053873      0.004855     -0.023440      0.003546     -0.004031      0.001008     -0.005715     -0.000221     -0.014257
  51 H       0.035516     -0.043816     -0.003897     -0.010835     -0.001773      0.008488      0.000082      0.009549     -0.002109     -0.009670
  52 H       0.041687      0.036810      0.008962      0.013111      0.002640      0.010496      0.000628      0.008962      0.005346      0.011216
  53 H       0.022933     -0.016888     -0.035214     -0.007435     -0.012706      0.006706      0.001970      0.008743     -0.011612     -0.009006

 MBIS THIRD RADIAL MOMENT (A.U.):
  ATOM      <r^3>
   0 C   44.268264
   1 C   41.225016
   2 C   41.586817
   3 C   33.156311
   4 C   41.072044
   5 C   29.798344
   6 F   18.096663
   7 C   38.835343
   8 C   32.172154
   9 C   40.529118
  10 C   28.924885
  11 F   18.107489
  12 C   41.937759
  13 C   22.271727
  14 O   25.733257
  15 O   23.930841
  16 C   29.526918
  17 C   41.273749
  18 C   29.752795
  19 F   18.096011
  20 C   37.142608
  21 C   33.506267
  22 C   39.954615
  23 C   31.654120
  24 F   18.110543
  25 C   33.828882
  26 F   17.902683
  27 C   31.608498
  28 F   18.089351
  29 C   39.660458
  30 C   36.598068
  31 C   39.774543
  32 C   28.769559
  33 F   18.087951
  34 C   40.441945
  35 C   29.839574
  36 F   18.099694
  37 C   40.933363
  38 H    2.352920
  39 H    2.378500
  40 H    2.380488
  41 H    2.295868
  42 H    2.298709
  43 H    2.213231
  44 H    2.214266
  45 H    2.002643
  46 H    1.914271
  47 H    1.793431
  48 H    1.972512
  49 H    1.923471
  50 H    2.133469
  51 H    2.044191
  52 H    1.906617
  53 H    1.998880

-------------------------
RESP CHARGES GENERATION
-------------------------
Number of atoms                    ...           54
Number of "pure atoms"             ...           54
Grid spacing                       ...     0.300000
Point Cut-Off                      ...     2.800000
Van-der-Waals Radii                ...        COSMO
Total charge                       ...            0
Penalty function                   ... hyperbolic
Penalty function wa                ... 0.000500
Penalty function wb                ... 0.100000
Dipole moment constraint           ...        FALSE
Equivalent atom charge constraint  ...        FALSE

Grid generated                     ...      0.0 sec
Grid points                        ...        28171
Potential calculated               ...     10.3 sec
RespFile stored                    ...           ok

Iter     dqmax
--------------

0     0.937897
1     0.037080
2     0.004539
3     0.000596
4     0.000079
5     0.000011
6     0.000001
7     0.000000

Charges calculated                 ...      1.3 sec

RESP Charges            
--------------------------------
  0   C   :      -0.514710
  1   C   :       0.223807
  2   C   :      -0.097794
  3   C   :       0.171226
  4   C   :      -0.430797
  5   C   :       0.405440
  6   F   :      -0.204833
  7   C   :      -0.350756
  8   C   :       0.446140
  9   C   :      -0.522320
 10   C   :       0.505901
 11   F   :      -0.213263
 12   C   :      -0.580805
 13   C   :       0.931182
 14   O   :      -0.533420
 15   O   :      -0.401544
 16   C   :       0.430124
 17   C   :      -0.524503
 18   C   :       0.379307
 19   F   :      -0.200584
 20   C   :      -0.013673
 21   C   :       0.155450
 22   C   :      -0.426263
 23   C   :       0.311461
 24   F   :      -0.184699
 25   C   :       0.085625
 26   F   :      -0.149625
 27   C   :       0.331547
 28   F   :      -0.186185
 29   C   :      -0.437839
 30   C   :      -0.198254
 31   C   :      -0.324105
 32   C   :       0.520806
 33   F   :      -0.210899
 34   C   :      -0.521800
 35   C   :       0.405624
 36   F   :      -0.200199
 37   C   :      -0.416532
 38   H   :       0.126098
 39   H   :       0.124489
 40   H   :       0.124529
 41   H   :       0.004128
 42   H   :       0.002286
 43   H   :       0.066002
 44   H   :       0.065547
 45   H   :       0.203033
 46   H   :       0.246092
 47   H   :       0.277967
 48   H   :       0.234735
 49   H   :       0.243780
 50   H   :       0.184500
 51   H   :       0.211994
 52   H   :       0.249596
 53   H   :       0.176988
--------------------------------
Total charge:     0.000000
--------------------------------

RESP charges calculated...

Timings:
Grid generation                 ...        0.021 sec (=   0.000 min)
Potential calculation           ...       10.257 sec (=   0.171 min)
Fit to the potential            ...        1.277 sec (=   0.021 min)
------------------------------------------------------------------------------

-------
TIMINGS
-------

Total SCF time: 0 days 0 hours 12 min 24 sec 

Total time                  ....     744.283 sec
Sum of individual times     ....     721.135 sec  ( 96.9%)

SCF preparation             ....       3.456 sec  (  0.5%)
Fock matrix formation       ....     593.185 sec  ( 79.7%)
  Startup                   ....       0.105 sec  (  0.0% of F)
  Split-RI-J                ....      45.380 sec  (  7.7% of F)
  Chain of spheres X        ....     550.093 sec  ( 92.7% of F)
  XC integration            ....      19.515 sec  (  3.3% of F)
    XC Preparation          ....       0.000 sec  (  0.0% of XC)
    Basis function eval.    ....       4.759 sec  ( 24.4% of XC)
    Density eval.           ....       4.072 sec  ( 20.9% of XC)
    XC-Functional eval.     ....       1.160 sec  (  5.9% of XC)
    XC-Potential eval.      ....       4.975 sec  ( 25.5% of XC)
Diagonalization             ....       0.000 sec  (  0.0%)
Density matrix formation    ....       0.578 sec  (  0.1%)
Total Energy calculation    ....       0.345 sec  (  0.0%)
Population analysis         ....     119.540 sec  ( 16.1%)
Orbital Transformation      ....       0.480 sec  (  0.1%)
Orbital Orthonormalization  ....       0.000 sec  (  0.0%)
DIIS solution               ....       2.558 sec  (  0.3%)
SOSCF solution              ....       0.992 sec  (  0.1%)
Finished LeanSCF after 744.3 sec

Maximum memory used throughout the entire LEANSCF-calculation: 116.7 MB


-------------------------------------------------------------------------------
                          DFT DISPERSION CORRECTION                            
                                                                               
                                DFTD4 V3.4.0                                   
-------------------------------------------------------------------------------
The wB97X-3c composite method is recognized
Using three-body term ABC
Active option DFTDOPT                   ...         5   

-------------------------   ----------------
Dispersion correction           -0.087678679
-------------------------   ----------------


-------------------------   --------------------
FINAL SINGLE POINT ENERGY      -395.798480519305
-------------------------   --------------------



           ************************************************************
           *        Program running with 4 parallel MPI-processes     *
           *              working on a common directory               *
           ************************************************************

------------------------------------------------------------------------------
                              ORCA PROPERTY CALCULATIONS
------------------------------------------------------------------------------

GBWName                                 ... conf_021.gbw
Number of atoms                         ...     54
Number of basis functions               ...    574
Max core memory                         ...   4000 MB

Electric properties:
Dipole moment                           ... YES
Quadrupole moment                       ...  NO
Static polarizability (Dipole/Dipole)   ...  NO
Static polarizability (Dipole/Quad.)    ...  NO
Static polarizability (Quad./Quad.)     ...  NO
Static polarizability (Velocity)        ...  NO
Static hyperpolarizability              ...  NO

Atomic electric properties:
Dipole moment                           ...  NO
Quadrupole moment                       ...  NO
Static polarizability                   ...  NO

Choice of electric origin               ... Center of mass
Position of electric origin             ...    -3.022899     0.143177     0.267931

General magnetic properties:
Magnetizability                         ...  NO

EPR properties:
g-Tensor (aka g-matrix)                 ...  NO
Zero-Field splitting spin-orbit         ...  NO
Zero-field splitting spin-spin          ...  NO
Hyperfine couplings                     ...  NO (   0 nuclei)
Quadrupole couplings                    ...  NO (   0 nuclei)
Contact density                         ...  NO (   0 nuclei)

NMR properties:
Chemical shifts                         ...  NO (   0 nuclei)
Spin-rotation constants                 ...  NO (   0 nuclei)
Spin-spin couplings                     ...  NO (   0 nuclei,    0 pairs)

Choice of magnetic origin               ... GIAO
Position of magnetic origin             ...     0.000000     0.000000     0.000000

Properties with geometric perturbations:
SCF Hessian                             ...  NO
IR spectrum                             ...  NO
VCD spectrum                            ...  NO
X-ray spectroscopy properties:
SCF XES/XAS/RIXS spectra                ...  NO

SCF SOC stabilization energy            ...  NO
Diagonal Born-Oppenheimer correction    ...  NO

-------------
DIPOLE MOMENT
-------------

Method             : SCF
Type of density    : Electron Density
Multiplicity       :   1
Irrep              :   0
Energy             :  -395.7108018407773216 Eh
Basis              : AO
                                X                 Y                 Z
Electronic contribution:    -72.480606040       2.219573730       5.742792227
Nuclear contribution   :     76.534492487      -3.028283127      -5.609798479
                        -----------------------------------------
Total Dipole Moment    :      4.053886448      -0.808709398       0.132993748
                        -----------------------------------------
Magnitude (a.u.)       :      4.135902992
Magnitude (Debye)      :     10.512629952



--------------------
Rotational spectrum 
--------------------
 
Rotational constants in cm-1:             0.012424             0.000751             0.000725 
Rotational constants in MHz :           372.463840            22.509186            21.728389 

Dipole components along the rotational axes: 
x,y,z [a.u.] :    -3.931594    -0.922176     0.893227 
x,y,z [Debye]:    -9.993317    -2.343986     2.270403 

 

Dipole moment calculation done in   0.0 sec 

Maximum memory used throughout the entire PROP-calculation: 57.5 MB

--------------------------------
SUGGESTED CITATIONS FOR THIS RUN
--------------------------------

Below you find a list of papers that are relevant to this ORCA run
We neither can nor want to force you to cite these papers, but we appreciate if you do
You receive ORCA, which is the product of decades of hard work by many enthusiastic individuals, for free
The only thing we kindly ask in return is that you cite our papers,
We deeply appreciate it, if you show your appreciation for ORCA by not just citing the generic ORCA reference.

Please note that relegating all ORCA citations to the supporting information does *not* help us.
SI sections are not indexed - citations you put there will not count into any citation statistics
But we need these citations in order to attract the funding resources that allow us to do what we are doing

Therefore, if you are a happy ORCA user, please consider citing a few of the papers listed below in the main body of your paper

In addition to the list printed below, the program has created the file conf_021.bibtex that contains the list in bibtex format
You can import this file easily into all common literature databanks and citation aid programs


List of essential papers. We consider these as the minimum necessary citations

  1. Mueller, M.; Hansen, A.; Grimme, S.
     wB97X-3c: A composite range-separated hybrid DFT method with a molecule-optimized polarized valence double-zeta basis set
     J. Chem. Phys. 2023 158 , 014103
     doi.org/10.1063/5.0133026
  2. Neese, F.
     Software update: the ORCA program system, version 6.0
     WIRES Comput. Molec. Sci. 2025 15(1), e70019
     doi.org/10.1002/wcms.7019

List of papers to cite with high priority. The work reported in these papers was absolutely
necessary for this run to complete.
Our perspective: the developers of density functionals and basis sets usually get cited in chemistry papers
Good! But without the algorithms to do something with them, the functionals or basis sets would not do anything.
Hence, in our opinion, the algorithm design and method developments papers are equally worthy of getting cited

  1. Neese, F.
     An improvement of the resolution of the identity approximation for the formation of the Coulomb matrix
     J. Comp. Chem. 2003 24(14), 1740-1747
     doi.org/10.1002/jcc.10318
  2. Neese, F.; Wennmohs, F.; Hansen, A.; Becker, U.
     Efficient, approximate and parallel Hartree-Fock and hybrid DFT calculations. A 'chain-of-spheres' algorithm for the Hartree-Fock exchange
     Chem. Phys. 2009 356(1-3), 98-109
     doi.org/10.1016/j.chemphys.2008.10.036
  3. Caldeweyher, E.; Bannwarth, C.; Grimme, S.
     Extension of the D3 dispersion coefficient model
     J. Chem. Phys. 2017 147 , 034112
     doi.org/10.1063/1.4993215
  4. Caldeweyher, E.; Ehlert, S.; Hansen, A.; Neugebauer, H.; Spicher, S.; Bannwarth, C.; Grimme, S.
     A generally applicable atomic-charge dependent London dispersion correction
     J. Chem. Phys. 2019 150 , 154122
     doi.org/10.1063/1.5090222
  5. Caldeweyher, E.; Mewes, J.; Ehlert, S.; Grimme, S.
     Extension and evaluation of the D4 London-dispersion model for periodic systems
     Phys. Chem. Chem. Phys. 2020 22(16), 8499-8512
     doi.org/10.1039/D0CP00502A
  6. Helmich-Paris, B.; de Souza, B.; Neese, F.; Izsák, R.
     An improved chain of spheres for exchange algorithm
     J. Chem. Phys. 2021 155(10), 104109
     doi.org/10.1063/5.0058766
  7. Neese, F.
     The SHARK Integral Generation and Digestion System
     J. Comp. Chem. 2022 44(3), 381
     doi.org/10.1002/jcc.26942
  8. Wittmann, L.; Gordiy, I.; Friede, M.; Helmich-Paris, B.; Grimme, S.; Hansen, A.; Bursch, M.
     Extension of the D3 and D4 London Dispersion Corrections to the full Actinides Series
     Phys. Chem. Chem. Phys. 2024 26(32), 21379-21394
     doi.org/10.1039/D4CP01514B

List of suggested additional citations. These are papers that are important in the 'surrounding' of 
of this run, or papers that preceded the highly important papers. If you like your results we are grateful for a citation.

  1. Izsak, R.; Neese, F.
     An overlap fitted chain of spheres exchange method
     J. Chem. Phys. 2011 135 , 144105
     doi.org/10.1063/1.3646921
  2. Izsak, R.; Hansen, A.; Neese, F.
     The resolution of identity and chain of spheres approximations for the LPNO-CCSD singles Fock term
     Molec. Phys. 2012 110 , 2413-2417
     doi.org/10.1080/00268976.2012.687466
  3. Neese, F.
     The ORCA program system
     WIRES Comput. Molec. Sci. 2012 2(1), 73-78
     doi.org/10.1002/wcms.81
  4. Izsak, R.; Neese, F.; Klopper, W.
     Robust fitting techniques in the chain of spheres approximation to the Fock exchange: The role of the complementary space
     J. Chem. Phys. 2013 139 , 
     doi.org/10.1063/1.4819264
  5. Neese, F.
     Software update: the ORCA program system, version 4.0
     WIRES Comput. Molec. Sci. 2018 8(1), 1-6
     doi.org/10.1002/wcms.1327
  6. Neese, F.; Wennmohs, F.; Becker, U.; Riplinger, C.
     The ORCA quantum chemistry program package
     J. Chem. Phys. 2020 152(22), 224108
     doi.org/10.1063/5.0004608
  7. Neese, F.
     Software update: The ORCA program system—Version 5.0
     WIRES Comput. Molec. Sci. 2022 12(1), e1606
     doi.org/10.1002/wcms.1606

List of optional additional citations

  1. Neese, F.
     Approximate second-order SCF convergence for spin unrestricted wavefunctions
     Chem. Phys. Lett. 2000 325(1-3), 93-98
     doi.org/10.1016/s0009-2614(00)00662-x

Timings for individual modules:

Sum of individual times          ...      771.402 sec (=  12.857 min)
Startup calculation              ...       13.375 sec (=   0.223 min)   1.7 %
SCF iterations                   ...      756.156 sec (=  12.603 min)  98.0 %
Property calculations            ...        1.871 sec (=   0.031 min)   0.2 %
                             ****ORCA TERMINATED NORMALLY****
TOTAL RUN TIME: 0 days 0 hours 12 minutes 53 seconds 276 msec
