Loading openmpi/5.0.6/gcc-14.2.0
  Loading requirement: gcc/14.2.0

                                 *****************
                                 * O   R   C   A *
                                 *****************

                                            #,                                       
                                            ###                                      
                                            ####                                     
                                            #####                                    
                                            ######                                   
                                           ########,                                 
                                     ,,################,,,,,                         
                               ,,#################################,,                 
                          ,,##########################################,,             
                       ,#########################################, ''#####,          
                    ,#############################################,,   '####,        
                  ,##################################################,,,,####,       
                ,###########''''           ''''###############################       
              ,#####''   ,,,,##########,,,,          '''####'''          '####       
            ,##' ,,,,###########################,,,                        '##       
           ' ,,###''''                  '''############,,,                           
         ,,##''                                '''############,,,,        ,,,,,,###''
      ,#''                                            '''#######################'''  
     '                                                          ''''####''''         
             ,#######,   #######,   ,#######,      ##                                
            ,#'     '#,  ##    ##  ,#'     '#,    #''#        ,####,    ,#,          
            ##       ##  ##   ,#'  ##            #'  '#       #'       ,# #          
            ##       ##  #######   ##           ,######,      #####,      #          
            '#,     ,#'  ##    ##  '#,     ,#' ,#      #,     #,   #      #          
             '#######'   ##     ##  '#######'  #'      '#     '####' #    #          



                #########################################################
                #                        -***-                          #
                #          Department of theory and spectroscopy        #
                #                                                       #
                #                      Frank Neese                      #
                #                                                       #
                #     Directorship, Architecture, Infrastructure        #
                #                    SHARK, DRIVERS                     #
                #        Core code/Algorithms in most modules           #
                #                                                       #
                #        Max Planck Institute fuer Kohlenforschung      #
                #                Kaiser Wilhelm Platz 1                 #
                #                 D-45470 Muelheim/Ruhr                 #
                #                      Germany                          #
                #                                                       #
                #                  All rights reserved                  #
                #                        -***-                          #
                #########################################################


                         Program Version 6.1.0  -  RELEASE   -
                                (GIT: $679e74b$)
                          ($2025-06-10 18:02:51 +0200$)


 With contributions from (in alphabetic order):
[Max-Planck-Institut fuer Kohlenforschung]                               
  Daniel Aravena         : Magnetic Suceptibility                        
  Michael Atanasov       : Ab Initio Ligand Field Theory (pilot matlab implementation)
  Alexander A. Auer      : GIAO ZORA, VPT2 properties, NMR spectrum      
  Ute Becker             : All parallelization in ORCA, NUMFREQ, NUMCALC 
  Giovanni Bistoni       : ED, misc. LED, open-shell LED, HFLD           
  Dmytro Bykov           : pre 5.0 version of the SCF Hessian            
  Marcos Casanova-Páez   : Triplet and SCS-CIS(D). UHF-(DLPNO)-IP/EA/STEOM-CCSD. UHF-CVS-IP/STEOM-CCSD   
  Vijay G. Chilkuri      : MRCI spin determinant printing, contributions to CSF-ICE 
  Pauline Colinet        : FMM embedding                                 
  Dipayan Datta          : RHF DLPNO-CCSD density                        
  Achintya Kumar Dutta   : EOM-CC, STEOM-CC                              
  Nicolas Foglia         : Exact transition moments, OPA infrastructure, MCD improvements    
  Dmitry Ganyushin       : Spin-Orbit,Spin-Spin,Magnetic field MRCI      
  Miquel Garcia-Rates    : C-PCM and meta-GGA Hessian, CCSD/C-PCM, Gaussian charge scheme 
  Tiago L. C. Gouveia    : GS-ROHF, GS-ROCIS                             
  Yang Guo               : DLPNO-NEVPT2, F12-NEVPT2, CIM, IAO-localization        
  Andreas Hansen         : Spin unrestricted coupled pair/coupled cluster methods 
  Ingolf Harden          : AUTO-CI MPn and infrastructure                
  Benjamin Helmich-Paris : MC-RPA, TRAH-(SCF,CASSCF), AVAS, COSX integrals, SCF dyn. polar., MC-PDFT, srDFT 
  Lee Huntington         : MR-EOM, pCC                                   
  Robert Izsak           : Overlap fitted RIJCOSX, COSX-SCS-MP3, EOM     
  Riya Kayal             : Wick's Theorem for AUTO-CI, AUTO-CI UHF-CCSDT 
  Emily Kempfer          : AUTO-CI RHF CISDT and CCSDT, approximate NEVPT4
  Christian Kollmar      : KDIIS, OOCD, Brueckner-CCSD(T), CCSD density, CASPT2, CASPT2-K, improved NEVPT2 
  Axel Koslowski         : Symmetry handling                             
  Simone Kossmann        : meta-GGA functionals, TD-DFT gradient, OOMP2, (MP2 Hessian; deprecated post 5.0) 
  Lucas Lang             : DCDCAS, Hyperfine gauge corrections, ICE-SOC+SSC
  Marvin Lechner         : AUTO-CI (C++ implementation), FIC-MRCC        
  Spencer Leger          : CASSCF response                               
  Dagmar Lenk            : GEPOL surface, SMD, ORCA-2-JSON               
  Dimitrios Liakos       : Extrapolation schemes; Compound Job, Property file
  Dimitrios Manganas     : Further ROCIS development; embedding schemes. LFT, Crystal Embedding 
  Dimitrios Pantazis     : SARC Basis sets                               
  Anastasios Papadopoulos: AUTO-CI, single reference methods and gradients 
  Taras Petrenko         : pre 6.0 DFT Hessian and TD-DFT gradient,  ECA, NRVS 
  Petra Pikulova         : Analytic Raman intensities                    
  Peter Pinski           : DLPNO-MP2, DLPNO-MP2 Gradient                 
  Shashank Vittal Rao    : ES-AILFT, MagRelax                            
  Christoph Reimann      : Effective Core Potentials                     
  Marius Retegan         : Local ZFS, SOC                                
  Christoph Riplinger    : Optimizer, TS searches, QM/MM, DLPNO-CCSD(T), (RO)-DLPNO pert. Triples 
  Michael Roemelt        : Original ROCIS implementation, recursive CI coupling coefficients
  Masaaki Saitow         : Open-shell DLPNO-CCSD energy and density      
  Barbara Sandhoefer     : DKH picture change effects                    
  Yorick L. A. Schmerwitz: GMF and freeze-and-release deltaSCF, NEB S-IDPP initial path                    
  Kantharuban Sivalingam : CASSCF convergence/infrastructure, NEVPT2, NEVPT3, NEVPT4(SD), FIC-MRCI and CEPA variants
  Bernardo de Souza      : ESD, SOC TD-DFT                               
  Georgi L. Stoychev     : AutoAux, RI-MP2 NMR, DLPNO-MP2 response, X2C  
  Van Anh Tran           : RI-MP2 g-tensors                              
  Willem Van den Heuvel  : Paramagnetic NMR                              
  Zikuan Wang            : NOTCH, Electric field optimization            
  Frank Wennmohs         : Technical directorship and infrastructure     
  Hang Xu                : AUTO-CI-Response properties                   
                                                                         
[FACCTs GmbH]                                                            
  Markus Bursch, Nicolas Foglia, Miquel Garcia-Rates, Ingolf Harden, Hagen Neugebauer, Anastasios Papadopoulos, 
  Christoph Riplinger, Bernardo de Souza, Georgi L. Stoychev                                                    
                                                                 
  APM, various basis sets, CI-OPT, improved COSX, DLPNO-Multilevel,           
  DOCKER, DRACO, updates on ESD, Fragmentator, GOAT, IRC, LR-CPCM, L-BFGS, MBIS, meta-GGA TD-DFT gradient, ML-optimized integration grids, 
  MM, NACMEs, nearIR, NEB, NEB-TS, NL-DFT gradient (VV10), 2- and 3-layer-ONIOM, interface openCOSMO-RS, QMMM,   
  Crystal-QMMM, RESP, rigid body optimization, SF, symmetry and pop. for TD-DFT, various functionals, SOLVATOR                                   
                                                                         
[Other institutions]                                                     
  V. Asgeirsson          : NEB                                           
  Christoph Bannwarth    : sTDA-DFT, sTD-DFT, PBEh-3c, B97-3c, D3        
  Giovanni Bistoni       : ETS/NOCV, ADLD/ADEX, COVALED                  
  Martin Brehm           : Molecular dynamics                            
  Ronald Cardenas        : ETS/NOCV                                      
  Martina Colucci        : COVALED                                       
  Sebastian Ehlert       : rSCAN, r2SCAN, r2SCAN-3c, D4, dhf basis sets  
  Marvin Friede          : D4 for Fr, Ra, Ac-Lr                          
  Lars Goerigk           : TD-DFT with DH, B97 family of functionals     
  Stefan Grimme          : VdW corrections, initial TS optimization, DFT functionals, gCP, sTDA/sTD-DF 
  Waldemar Hujo          : DFT-NL                                        
  H. Jonsson             : NEB                                           
  Holger Kruse           : gCP                                           
  Marcel Mueller         : wB97X-3c, vDZP basis set                      
  Hagen Neugebauer       : wr2SCAN, Native XTB                           
  Gianluca Regni         : ADLD/ADEX                                     
  Tobias Risthaus        : pre 6.0 range-separated hybrid DFT and stability analysis
  Lukas Wittmann         : regularized MP2, r2SCAN double-hybrids, wr2SCAN        
                                                                         
We gratefully acknowledge several colleagues who have allowed us to      
interface, adapt or use parts of their codes:                            
  Ed Valeev, F. Pavosevic, A. Kumar             : LibInt (2-el integral package), F12 methods 
  Garnet Chan, S. Sharma, J. Yang, R. Olivares  : DMRG                   
  Ulf Ekstrom                                   : XCFun DFT Library      
  Mihaly Kallay                                 : mrcc  (arbitrary order and MRCC methods)
  Frank Weinhold                                : gennbo (NPA and NBO analysis)           
  Simon Mueller                                 : openCOSMO-RS                            
  Christopher J. Cramer and Donald G. Truhlar   : smd solvation model                     
  S Lehtola, MJT Oliveira, MAL Marques          : LibXC Library                           
  Liviu Ungur et al                             : ANISO software                          


 Your calculation uses the libint2 library for the computation of 2-el integrals
 For citations please refer to: http://libint.valeyev.net

 Your ORCA version has been built with support for libXC version: 7.0.0
 For citations please refer to: https://libxc.gitlab.io

 This ORCA versions uses:
   CBLAS   interface :  Fast vector & matrix operations
   LAPACKE interface :  Fast linear algebra routines
   SCALAPACK package :  Parallel linear algebra routines
   Shared memory     :  Shared parallel matrices
   BLAS/LAPACK       :  OpenBLAS 0.3.29  USE64BITINT DYNAMIC_ARCH NO_AFFINITY Cooperlake SINGLE_THREADED
        Core in use  :  Cooperlake
   Copyright (c) 2011-2014, The OpenBLAS Project


  ***********************************
  * Starting time: Wed May 13 14:54:46 2026
  * Host name:     node045.aire.lee.alces.network
  * Process ID:    972938
  * Working dir.:  /tmp/job.4919711
  ***********************************

NOTE: MaxCore=4000 MB was set to SCF,MP2,MDCI,CIPSI,MRCI,RASCI and CIS
      => If you want to overwrite this, your respective input block should be placed after the MaxCore statement


***************************************
The coordinates will be read from file: conf_010.xyz
***************************************


Your calculation utilizes the atom-pairwise dispersion correction
based on EEQ partial charges (D4)


================================================================================

cite the ECPs for C  [vDZP-ECP], F  [vDZP-ECP], O  [vDZP-ECP] as follows:
   B-Ne (ecp-2-mwb), Al-Ar (ecp-10-mwb), Ga-Kr (ecp-28-mwb), Y-Cd (ecp-28-mwb), In-Xe (ecp-46-mwb):
     A. Bergner, M. Dolg, W. Küchle, H. Stoll, and H. Preuß, Mol. Phys. 80, 1431 (1993)., T. Leininger, A. Berning, A. Nicklass, H. Stoll, H.-J. Werner, and H.-J.Flad, Chem. Phys. 217, 19 (1997).
   Na-Mg, K-Ca, Rb-Sr, Cs-Ba (CRENBL):
     L. Fernandez Pacios and P. A. Christiansen, J. Chem. Phys. 82, 2664 (1985)., M. M. Hurley, L. F. Pacios, P. A. Christiansen, R. B. Ross, and W. C. Ermler, J. Chem. Phys. 84, 6840 (1986)., L. A. LaJohn, P. A. Christiansen, R. B. Ross, T. Atashroo, and W. C. Ermler, J. Chem. Phys. 87, 2812 (1987)., R. B. Ross, J. M. Powers, T. Atashroo, W. C. Ermler, L. A. LaJohn, and P. A. Christiansen, J. Chem. Phys. 93, 6654 (1990). 
   Sc-Zn (ecp-10-mdf):
     M. Dolg, U. Wedig, H. Stoll, and H. Preuss, J. Chem. Phys. 86, 866 (1986). 
   Y-Cd (ecp-28-mwb), Hf-Hg (ecp-60-mwb):
     D. Andrae, U. Häußermann, M. Dolg, H. Stoll, and H. Preuß, Theor. Chim. Acta 77, 123 (1990). 
   La (ecp-46-mwb):
     M. Dolg, H. Stoll, and H. Preuss, J. Chem. Phys. 90, 1730 (1989)., M. Dolg, H. Stoll, and H. Preuss, Theor. Chim. Acta 85, 441 (1993).
   Ce-Lu (SBKJC-ecp):
     T. R. Cundari and W. J. Stevens, J. Chem. Phys. 98, 5555 (1993).
   Tl-Rn (ecp-78-mwb):
     W. Küchle, M. Dolg, H. Stoll, and H. Preuss, Mol. Phys. 74, 1245 (1991).

ECP parameters for C  [vDZP-ECP], F  [vDZP-ECP], O  [vDZP-ECP] have been obtained from:
MM, AH, SG, J. Chem. Phys. 158, 014103 (2023), 10.1063/5.0133026

----- Orbital basis set information -----
Your calculation utilizes the basis: vDZP
   Marcel Mueller, Andreas Hansen, Stefan Grimme 
   J. Chem. Phys. 158, 014103 (2023). DOI: 10.1063/5.0133026

----- AuxJ basis set information -----
Your calculation utilizes the auxiliary basis: def2/J
   H-Rn: F. Weigend, Phys. Chem. Chem. Phys. 8, 1057 (2006).
   Fr-Lr: K. Eichkorn, F. Weigend, O. Treutler, R. Ahlrichs; Theor. Chem. Acc. 97, 119 (1997).

================================================================================
                                        WARNINGS
                       Please study these warnings very carefully!
================================================================================

WARNING: Frozen-Core approximation turned on, but there are no core electrons.
  ===> : Turning off frozen-core approximation


================================================================================
                                       INPUT FILE
================================================================================
NAME = conf_010.inp
|  1> ! wb97x-3c mbis hirshfeld chelpg resp
|  2> %pal nprocs 4 end
|  3> %maxcore 4000
|  4> %method
|  5> 	   MBIS_LARGEPRINT TRUE
|  6> 	end
|  7> #conf_010
|  8> * xyzfile 0 1 conf_010.xyz
|  9> 
| 10>                          ****END OF INPUT****
================================================================================

                       ****************************
                       * Single Point Calculation *
                       ****************************

---------------------------------
CARTESIAN COORDINATES (ANGSTROEM)
---------------------------------
  C      9.972114    1.840542   -2.014904
  C      8.509897    1.543646   -1.711220
  C      8.357758    0.757590   -0.401076
  C      6.913935    0.475260   -0.124920
  C      6.136828    1.381749    0.585409
  C      4.794655    1.133034    0.788753
  F      4.085516    2.028520    1.500715
  C      4.154824   -0.013741    0.317053
  C      2.725837   -0.270999    0.552360
  C      2.297708   -1.529276    0.967184
  C      0.954287   -1.752670    1.193534
  F      0.568842   -2.973803    1.575073
  C     -0.010495   -0.762436    1.005117
  C     -1.450615   -1.034314    1.289565
  O     -1.848584   -1.676504    2.219729
  O     -2.215000   -0.434996    0.360082
  C     -3.592247   -0.481241    0.379171
  C     -4.231858    0.613675   -0.191321
  C     -5.608927    0.626795   -0.256824
  F     -6.201673    1.708930   -0.795734
  C     -6.390399   -0.417113    0.239676
  C     -7.859729   -0.391603    0.178433
  C     -8.522165    0.046436   -0.965020
  C     -9.903210    0.050697   -1.004800
  F    -10.527388    0.464094   -2.115486
  C    -10.658088   -0.373342    0.083614
  F    -11.995517   -0.366051    0.037988
  C     -9.985278   -0.805884    1.221587
  F    -10.688037   -1.216218    2.286575
  C     -8.605408   -0.820642    1.273989
  C     -5.715237   -1.495707    0.807061
  C     -4.335704   -1.544356    0.874877
  C      0.450759    0.484053    0.582682
  F     -0.422718    1.484112    0.404317
  C      1.788767    0.741571    0.363080
  C      4.966423   -0.901234   -0.390411
  F      4.418089   -2.019713   -0.900832
  C      6.308106   -0.673126   -0.619158
  H     10.060490    2.396355   -2.944905
  H     10.416435    2.432439   -1.217936
  H     10.538391    0.917059   -2.112042
  H      7.952675    2.479304   -1.633397
  H      8.074190    0.964732   -2.527952
  H      8.785732    1.341236    0.415320
  H      8.911260   -0.179066   -0.482518
  H      6.567152    2.284204    0.990139
  H      2.995162   -2.335733    1.126007
  H     -3.655670    1.441549   -0.571271
  H     -7.980892    0.379261   -1.835549
  H     -8.123676   -1.147442    2.181391
  H     -6.287832   -2.329376    1.182262
  H     -3.846735   -2.397133    1.315238
  H      2.084810    1.726884    0.041079
  H      6.872442   -1.400009   -1.181825

----------------------------
CARTESIAN COORDINATES (A.U.)
----------------------------
  NO LB      ZA    FRAG     MASS         X           Y           Z
   0 C     4.0000*   0    12.011   18.844564    3.478120   -3.807616
   1 C     4.0000*   0    12.011   16.081374    2.917069   -3.233738
   2 C     4.0000*   0    12.011   15.793874    1.431638   -0.757924
   3 C     4.0000*   0    12.011   13.065443    0.898112   -0.236065
   4 C     4.0000*   0    12.011   11.596925    2.611128    1.106262
   5 C     4.0000*   0    12.011    9.060585    2.141124    1.490527
   6 F     7.0000*   0    18.998    7.720506    3.833347    2.835941
   7 C     4.0000*   0    12.011    7.851479   -0.025966    0.599144
   8 C     4.0000*   0    12.011    5.151085   -0.512114    1.043809
   9 C     4.0000*   0    12.011    4.342039   -2.889914    1.827714
  10 C     4.0000*   0    12.011    1.803341   -3.312066    2.255453
  11 F     7.0000*   0    18.998    1.074956   -5.619673    2.976457
  12 C     4.0000*   0    12.011   -0.019833   -1.440795    1.899395
  13 C     4.0000*   0    12.011   -2.741265   -1.954571    2.436925
  14 O     6.0000*   0    15.999   -3.493317   -3.168134    4.194679
  15 O     6.0000*   0    15.999   -4.185743   -0.822023    0.680456
  16 C     4.0000*   0    12.011   -6.788364   -0.909414    0.716530
  17 C     4.0000*   0    12.011   -7.997053    1.159678   -0.361545
  18 C     4.0000*   0    12.011  -10.599336    1.184472   -0.485328
  19 F     7.0000*   0    18.998  -11.719464    3.229411   -1.503719
  20 C     4.0000*   0    12.011  -12.076104   -0.788229    0.452922
  21 C     4.0000*   0    12.011  -14.852736   -0.740023    0.337190
  22 C     4.0000*   0    12.011  -16.104558    0.087752   -1.823624
  23 C     4.0000*   0    12.011  -18.714354    0.095803   -1.898796
  24 F     7.0000*   0    18.998  -19.893881    0.877010   -3.997690
  25 C     4.0000*   0    12.011  -20.140867   -0.705514    0.158008
  26 F     7.0000*   0    18.998  -22.668242   -0.691736    0.071787
  27 C     4.0000*   0    12.011  -18.869441   -1.522899    2.308464
  28 F     7.0000*   0    18.998  -20.197463   -2.298319    4.321000
  29 C     4.0000*   0    12.011  -16.261864   -1.550789    2.407491
  30 C     4.0000*   0    12.011  -10.800233   -2.826477    1.525124
  31 C     4.0000*   0    12.011   -8.193292   -2.918409    1.653278
  32 C     4.0000*   0    12.011    0.851810    0.914727    1.101109
  33 F     7.0000*   0    18.998   -0.798821    2.804566    0.764049
  34 C     4.0000*   0    12.011    3.380280    1.401365    0.686121
  35 C     4.0000*   0    12.011    9.385179   -1.703086   -0.737770
  36 F     7.0000*   0    18.998    8.348978   -3.816704   -1.702326
  37 C     4.0000*   0    12.011   11.920593   -1.272023   -1.170039
  38 H     1.0000    0     1.008   19.011572    4.528454   -5.565063
  39 H     1.0000    0     1.008   19.684209    4.596644   -2.301565
  40 H     1.0000    0     1.008   19.914673    1.732991   -3.991181
  41 H     1.0000    0     1.008   15.028378    4.685206   -3.086672
  42 H     1.0000    0     1.008   15.258008    1.823079   -4.777137
  43 H     1.0000    0     1.008   16.602627    2.534569    0.784841
  44 H     1.0000    0     1.008   16.839841   -0.338387   -0.911827
  45 H     1.0000    0     1.008   12.410118    4.316519    1.871091
  46 H     1.0000    0     1.008    5.660036   -4.413895    2.127845
  47 H     1.0000    0     1.008   -6.908216    2.724133   -1.079546
  48 H     1.0000    0     1.008  -15.081701    0.716700   -3.468685
  49 H     1.0000    0     1.008  -15.351524   -2.168352    4.122231
  50 H     1.0000    0     1.008  -11.882280   -4.401883    2.234151
  51 H     1.0000    0     1.008   -7.269275   -4.529924    2.485440
  52 H     1.0000    0     1.008    3.939721    3.263337    0.077629
  53 H     1.0000    0     1.008   12.987032   -2.645634   -2.233325
* core charge reduced due to ECP

--------------------------------
INTERNAL COORDINATES (ANGSTROEM)
--------------------------------
 C      0   0   0     0.000000000000     0.00000000     0.00000000
 C      1   0   0     1.522645411914     0.00000000     0.00000000
 C      2   1   0     1.535418013703   111.41738651     0.00000000
 C      3   2   1     1.496862823980   110.46027148   180.11129929
 C      4   3   2     1.389310726710   120.71628731   271.48632808
 C      5   4   3     1.380085901514   120.11430895   177.51071567
 F      6   5   4     1.345980531095   118.06164741   178.96480118
 C      6   5   4     1.395341167878   122.97378667     0.47383519
 C      8   6   5     1.470902830840   122.35362739   179.42340016
 C      9   8   6     1.392348641731   120.29437828   225.30070469
 C     10   9   8     1.380550680153   119.62346854   179.52083912
 F     11  10   9     1.336153296503   118.38655207   179.18960385
 C     11  10   9     1.395302644735   122.40328652     0.87247629
 C     13  11  10     1.492908045297   120.79897297   181.35577575
 O     14  13  11     1.198328285764   124.46140626    39.65759651
 O     14  13  11     1.344398024355   109.60609916   218.74964719
 C     16  14  13     1.378155764041   122.93315152   181.61771321
 C     17  16  14     1.390469789455   115.31451192   151.02989038
 C     18  17  16     1.378688136684   119.10704721   177.72866614
 F     19  18  17     1.346398020683   117.80048287   178.99928809
 C     19  18  17     1.395333412135   122.36952239     0.53051567
 C     21  19  18     1.470827416624   122.12032564   179.40604992
 C     22  21  19     1.392187457844   120.99715013    42.53131805
 C     23  22  21     1.381624127913   120.01601452   179.42206090
 F     24  23  22     1.339448055547   119.38185562   180.56049926
 C     24  23  22     1.390789286108   121.26986046     0.18496187
 F     26  24  23     1.338227641556   120.93749639   179.97962564
 C     26  24  23     1.390951088971   118.19838025   359.96254240
 F     28  26  24     1.340314509237   119.44915714   179.80238099
 C     28  26  24     1.380943944014   121.17791029   359.78233100
 C     21  19  18     1.393245747741   116.91613978   359.63154028
 C     31  21  19     1.382055947702   122.06933200   359.68272271
 C     13  11  10     1.394610914231   116.52111925   359.47258760
 F     33  13  11     1.339736560686   119.46357238   181.08025517
 C     33  13  11     1.380147569004   122.38517802   359.76292647
 C      8   6   5     1.395293247081   115.30495989   359.59200279
 F     36   8   6     1.346177579328   118.93361296   181.26389026
 C     36   8   6     1.380026555681   122.98470352   359.81632120
 H      1   2   3     1.087032840588   110.38986555   179.97154204
 H      1   2   3     1.087622220772   110.62690669   299.93696067
 H      1   2   3     1.087623803331   110.62474228    60.00945694
 H      2   1   3     1.091791540234   109.70839334   120.93155159
 H      2   1   3     1.091802845830   109.72014910   239.06332024
 H      3   2   1     1.091011909911   109.01187262    59.19652958
 H      3   2   1     1.091018898667   108.99902223   301.01568847
 H      5   4   3     1.078613928248   120.97098229   357.20392871
 H     10   9   8     1.077978490094   121.40152541     0.11783472
 H     18  17  16     1.077835552168   120.23538635   357.39821402
 H     23  22  21     1.077761006655   121.44005823   359.95154736
 H     30  28  26     1.078072710616   118.79499221   178.96271736
 H     31  21  19     1.078723538030   118.86264548   181.25607221
 H     32  31  21     1.077143011998   120.06949134   180.37441875
 H     35  33  13     1.078038670970   118.96614229   180.26755133
 H     38  36   8     1.078623175187   118.92988318   180.50770314

---------------------------
INTERNAL COORDINATES (A.U.)
---------------------------
 C      0   0   0     0.000000000000     0.00000000     0.00000000
 C      1   0   0     2.877382827589     0.00000000     0.00000000
 C      2   1   0     2.901519546989   111.41738651     0.00000000
 C      3   2   1     2.828660797370   110.46027148   180.11129929
 C      4   3   2     2.625416788400   120.71628731   271.48632808
 C      5   4   3     2.607984395147   120.11430895   177.51071567
 F      6   5   4     2.543534585359   118.06164741   178.96480118
 C      6   5   4     2.636812670675   122.97378667     0.47383519
 C      8   6   5     2.779603519897   122.35362739   179.42340016
 C      9   8   6     2.631157615809   120.29437828   225.30070469
 C     10   9   8     2.608862699488   119.62346854   179.52083912
 F     11  10   9     2.524963803327   118.38655207   179.18960385
 C     11  10   9     2.636739872485   122.40328652     0.87247629
 C     13  11  10     2.821187348739   120.79897297   181.35577575
 O     14  13  11     2.264512278624   124.46140626    39.65759651
 O     14  13  11     2.540544081016   109.60609916   218.74964719
 C     16  14  13     2.604336963922   122.93315152   181.61771321
 C     17  16  14     2.627607099561   115.31451192   151.02989038
 C     18  17  16     2.605343002418   119.10704721   177.72866614
 F     19  18  17     2.544323526344   117.80048287   178.99928809
 C     19  18  17     2.636798014445   122.36952239     0.53051567
 C     21  19  18     2.779461007683   122.12032564   179.40604992
 C     22  21  19     2.630853022406   120.99715013    42.53131805
 C     23  22  21     2.610891221772   120.01601452   179.42206090
 F     24  23  22     2.531189995596   119.38185562   180.56049926
 C     24  23  22     2.628210860735   121.26986046     0.18496187
 F     26  24  23     2.528883747385   120.93749639   179.97962564
 C     26  24  23     2.628516623835   118.19838025   359.96254240
 F     28  26  24     2.532827355779   119.44915714   179.80238099
 C     28  26  24     2.609605860483   121.17791029   359.78233100
 C     21  19  18     2.632852900481   116.91613978   359.63154028
 C     31  21  19     2.611707242913   122.06933200   359.68272271
 C     13  11  10     2.635432691273   116.52111925   359.47258760
 F     33  13  11     2.531735191298   119.46357238   181.08025517
 C     33  13  11     2.608100929814   122.38517802   359.76292647
 C      8   6   5     2.636722113493   115.30495989   359.59200279
 F     36   8   6     2.543906952556   118.93361296   181.26389026
 C     36   8   6     2.607872247776   122.98470352   359.81632120
 H      1   2   3     2.054194367290   110.38986555   179.97154204
 H      1   2   3     2.055308134425   110.62690669   299.93696067
 H      1   2   3     2.055311125029   110.62474228    60.00945694
 H      2   1   3     2.063187006374   109.70839334   120.93155159
 H      2   1   3     2.063208370855   109.72014910   239.06332024
 H      3   2   1     2.061713718578   109.01187262    59.19652958
 H      3   2   1     2.061726925413   108.99902223   301.01568847
 H      5   4   3     2.038284928622   120.97098229   357.20392871
 H     10   9   8     2.037084124536   121.40152541     0.11783472
 H     18  17  16     2.036814011000   120.23538635   357.39821402
 H     23  22  21     2.036673140397   121.44005823   359.95154736
 H     30  28  26     2.037262175519   118.79499221   178.96271736
 H     31  21  19     2.038492061090   118.86264548   181.25607221
 H     32  31  21     2.035505299743   120.06949134   180.37441875
 H     35  33  13     2.037197849909   118.96614229   180.26755133
 H     38  36   8     2.038302402804   118.92988318   180.50770314

---------------------
BASIS SET INFORMATION
---------------------
There are 4 groups of distinct atoms

 Group   1 Type C   : 6s6p2d contracted to 2s2p1d pattern {42/42/2}
 Group   2 Type F   : 6s6p2d contracted to 2s2p1d pattern {42/42/2}
 Group   3 Type O   : 6s6p2d contracted to 2s2p1d pattern {42/42/2}
 Group   4 Type H   : 8s2p contracted to 2s1p pattern {53/2}

Atom   0C    basis set group =>   1
Atom   1C    basis set group =>   1
Atom   2C    basis set group =>   1
Atom   3C    basis set group =>   1
Atom   4C    basis set group =>   1
Atom   5C    basis set group =>   1
Atom   6F    basis set group =>   2
Atom   7C    basis set group =>   1
Atom   8C    basis set group =>   1
Atom   9C    basis set group =>   1
Atom  10C    basis set group =>   1
Atom  11F    basis set group =>   2
Atom  12C    basis set group =>   1
Atom  13C    basis set group =>   1
Atom  14O    basis set group =>   3
Atom  15O    basis set group =>   3
Atom  16C    basis set group =>   1
Atom  17C    basis set group =>   1
Atom  18C    basis set group =>   1
Atom  19F    basis set group =>   2
Atom  20C    basis set group =>   1
Atom  21C    basis set group =>   1
Atom  22C    basis set group =>   1
Atom  23C    basis set group =>   1
Atom  24F    basis set group =>   2
Atom  25C    basis set group =>   1
Atom  26F    basis set group =>   2
Atom  27C    basis set group =>   1
Atom  28F    basis set group =>   2
Atom  29C    basis set group =>   1
Atom  30C    basis set group =>   1
Atom  31C    basis set group =>   1
Atom  32C    basis set group =>   1
Atom  33F    basis set group =>   2
Atom  34C    basis set group =>   1
Atom  35C    basis set group =>   1
Atom  36F    basis set group =>   2
Atom  37C    basis set group =>   1
Atom  38H    basis set group =>   4
Atom  39H    basis set group =>   4
Atom  40H    basis set group =>   4
Atom  41H    basis set group =>   4
Atom  42H    basis set group =>   4
Atom  43H    basis set group =>   4
Atom  44H    basis set group =>   4
Atom  45H    basis set group =>   4
Atom  46H    basis set group =>   4
Atom  47H    basis set group =>   4
Atom  48H    basis set group =>   4
Atom  49H    basis set group =>   4
Atom  50H    basis set group =>   4
Atom  51H    basis set group =>   4
Atom  52H    basis set group =>   4
Atom  53H    basis set group =>   4
---------------------------------
AUXILIARY/J BASIS SET INFORMATION
---------------------------------
There are 4 groups of distinct atoms

 Group   1 Type C   : 12s5p4d2f1g contracted to 6s4p3d1f1g pattern {711111/2111/211/2/1}
 Group   2 Type F   : 12s5p4d2f1g contracted to 6s4p3d1f1g pattern {711111/2111/211/2/1}
 Group   3 Type O   : 12s5p4d2f1g contracted to 6s4p3d1f1g pattern {711111/2111/211/2/1}
 Group   4 Type H   : 5s2p1d contracted to 3s1p1d pattern {311/2/1}

Atom   0C    basis set group =>   1
Atom   1C    basis set group =>   1
Atom   2C    basis set group =>   1
Atom   3C    basis set group =>   1
Atom   4C    basis set group =>   1
Atom   5C    basis set group =>   1
Atom   6F    basis set group =>   2
Atom   7C    basis set group =>   1
Atom   8C    basis set group =>   1
Atom   9C    basis set group =>   1
Atom  10C    basis set group =>   1
Atom  11F    basis set group =>   2
Atom  12C    basis set group =>   1
Atom  13C    basis set group =>   1
Atom  14O    basis set group =>   3
Atom  15O    basis set group =>   3
Atom  16C    basis set group =>   1
Atom  17C    basis set group =>   1
Atom  18C    basis set group =>   1
Atom  19F    basis set group =>   2
Atom  20C    basis set group =>   1
Atom  21C    basis set group =>   1
Atom  22C    basis set group =>   1
Atom  23C    basis set group =>   1
Atom  24F    basis set group =>   2
Atom  25C    basis set group =>   1
Atom  26F    basis set group =>   2
Atom  27C    basis set group =>   1
Atom  28F    basis set group =>   2
Atom  29C    basis set group =>   1
Atom  30C    basis set group =>   1
Atom  31C    basis set group =>   1
Atom  32C    basis set group =>   1
Atom  33F    basis set group =>   2
Atom  34C    basis set group =>   1
Atom  35C    basis set group =>   1
Atom  36F    basis set group =>   2
Atom  37C    basis set group =>   1
Atom  38H    basis set group =>   4
Atom  39H    basis set group =>   4
Atom  40H    basis set group =>   4
Atom  41H    basis set group =>   4
Atom  42H    basis set group =>   4
Atom  43H    basis set group =>   4
Atom  44H    basis set group =>   4
Atom  45H    basis set group =>   4
Atom  46H    basis set group =>   4
Atom  47H    basis set group =>   4
Atom  48H    basis set group =>   4
Atom  49H    basis set group =>   4
Atom  50H    basis set group =>   4
Atom  51H    basis set group =>   4
Atom  52H    basis set group =>   4
Atom  53H    basis set group =>   4
-------------------------
ECP PARAMETER INFORMATION
-------------------------

 Group 1, Type C  ECP vDZP-ECP (replacing 2 core electrons, lmax=3)
 Group 2, Type F  ECP vDZP-ECP (replacing 2 core electrons, lmax=3)
 Group 3, Type O  ECP vDZP-ECP (replacing 2 core electrons, lmax=3)

Atom   0C    ECP group =>   1
Atom   1C    ECP group =>   1
Atom   2C    ECP group =>   1
Atom   3C    ECP group =>   1
Atom   4C    ECP group =>   1
Atom   5C    ECP group =>   1
Atom   6F    ECP group =>   2
Atom   7C    ECP group =>   1
Atom   8C    ECP group =>   1
Atom   9C    ECP group =>   1
Atom  10C    ECP group =>   1
Atom  11F    ECP group =>   2
Atom  12C    ECP group =>   1
Atom  13C    ECP group =>   1
Atom  14O    ECP group =>   3
Atom  15O    ECP group =>   3
Atom  16C    ECP group =>   1
Atom  17C    ECP group =>   1
Atom  18C    ECP group =>   1
Atom  19F    ECP group =>   2
Atom  20C    ECP group =>   1
Atom  21C    ECP group =>   1
Atom  22C    ECP group =>   1
Atom  23C    ECP group =>   1
Atom  24F    ECP group =>   2
Atom  25C    ECP group =>   1
Atom  26F    ECP group =>   2
Atom  27C    ECP group =>   1
Atom  28F    ECP group =>   2
Atom  29C    ECP group =>   1
Atom  30C    ECP group =>   1
Atom  31C    ECP group =>   1
Atom  32C    ECP group =>   1
Atom  33F    ECP group =>   2
Atom  34C    ECP group =>   1
Atom  35C    ECP group =>   1
Atom  36F    ECP group =>   2
Atom  37C    ECP group =>   1



           ************************************************************
           *        Program running with 4 parallel MPI-processes     *
           *              working on a common directory               *
           ************************************************************
------------------------------------------------------------------------------
                             ORCA STARTUP CALCULATIONS
                           -- RI-GTO INTEGRALS CHOSEN --
------------------------------------------------------------------------------
------------------------------------------------------------------------------
                   ___                                                        
                  /   \      - P O W E R E D   B Y -                         
                 /     \                                                     
                 |  |  |   _    _      __       _____    __    __             
                 |  |  |  | |  | |    /  \     |  _  \  |  |  /  |          
                  \  \/   | |  | |   /    \    | | | |  |  | /  /          
                 / \  \   | |__| |  /  /\  \   | |_| |  |  |/  /          
                |  |  |   |  __  | /  /__\  \  |    /   |      \           
                |  |  |   | |  | | |   __   |  |    \   |  |\   \          
                \     /   | |  | | |  |  |  |  | |\  \  |  | \   \       
                 \___/    |_|  |_| |__|  |__|  |_| \__\ |__|  \__/        
                                                                              
                      - O R C A' S   B I G   F R I E N D -                    
                                      &                                       
                       - I N T E G R A L  F E E D E R -                       
                                                                              
 v1 FN, 2020, v2 2021, v3 2022-2024                                           
------------------------------------------------------------------------------


----------------------
SHARK INTEGRAL PACKAGE
----------------------

Number of atoms                             ...     54
Number of basis functions                   ...    574
Number of shells                            ...    238
Maximum angular momentum                    ...      2
Integral batch strategy                     ... SHARK/LIBINT Hybrid
RI-J (if used) integral strategy            ... SPLIT-RIJ (Revised 2003 algorithm where possible)
Printlevel                                  ...      1
Contraction scheme used                     ... SEGMENTED contraction
Prescreening option                         ... SCHWARTZ
   Thresh                                   ... 1.000e-10
   Tcut                                     ... 1.000e-11
   Tpresel                                  ... 1.000e-11 
Coulomb Range Separation                    ... NOT USED
Exchange Range Separation                   ... Long Range
   Mu parameter                             ... 3.000e-01
   Scaling (regular/separated)              ... 1.670e-01 8.330e-01
Robust (split-)RI terms used:
  metric    (central integrals)             ... YES
  density   (r.h.s.  integrals)             ... YES
  potential (l.h.s.  integrals)             ... YES
Multipole approximations                    ... NOT USED
Finite Nucleus Model                        ... NOT USED
CABS basis                                  ... NOT available
Auxiliary Coulomb fitting basis             ... AVAILABLE
   # of basis functions in Aux-J            ...   2038
   # of shells in Aux-J                     ...    650
   Maximum angular momentum in Aux-J        ...      4
Auxiliary J/K fitting basis                 ... NOT available
Auxiliary Correlation fitting basis         ... NOT available
Auxiliary 'external' fitting basis          ... NOT available

done (  0.0 sec) Dimension = 238
   => SHARK Basis and OBASIS are compatible. Storing Pre-screening
Shell pair information
Shell pair cut-off parameter TPreSel        ...   1.0e-11
Total number of shell pairs                 ...     28441
Shell pairs after pre-screening             ...     18302
Total number of primitive shell pairs       ...    240572
Primitive shell pairs kept                  ...    101267
          la=0 lb=0:   3881 shell pairs
          la=1 lb=0:   6528 shell pairs
          la=1 lb=1:   2832 shell pairs
          la=2 lb=0:   2519 shell pairs
          la=2 lb=1:   2125 shell pairs
          la=2 lb=2:    417 shell pairs

Checking whether 4 symmetric matrices of dimension 574 fit in memory
:Max Core in MB      =   4000.00
 MB in use           =     36.69
 MB left             =   3963.31
 MB needed           =      5.04
 Data fit in memory  = YES
done (  0.3 sec)
Calculating Nuclear repulsion               ... done (  0.0 sec) ENN=   1923.944401386645 Eh

Diagonalization of the overlap matrix:
Smallest eigenvalue                        ... 2.255e-04
Time for diagonalization                   ...    0.061 sec
Threshold for overlap eigenvalues          ... 1.000e-07
Number of eigenvalues below threshold      ... 0
Time for construction of square roots      ...    0.032 sec
Total time needed                          ...    0.102 sec

-------------------
DFT GRID GENERATION
-------------------

General Integration Accuracy     IntAcc      ... 4.388
Radial Grid Type                 RadialGrid  ... OptM3 with GC (2021)
Angular Grid (max. ang.)         AngularGrid ... 4 (Lebedev-302)
Angular grid pruning method      GridPruning ... 4 (adaptive)
Weight generation scheme         WeightScheme... mBecke (2022)
Basis function cutoff            BFCut       ... 1.0000e-10
Integration weight cutoff        WCut        ... 1.0000e-14
Partially contracted basis set               ... off
Rotationally invariant grid construction     ... off
Angular grids for H and He will be reduced by one unit

Total number of grid points                  ...   278871
Total number of batches                      ...     4385
Average number of points per batch           ...       63
Average number of grid points per atom       ...     5164

--------------------
COSX GRID GENERATION
--------------------

GRIDX 1
-------
General Integration Accuracy     IntAcc      ... 3.816
Radial Grid Type                 RadialGrid  ... OptM3 with GC (2021)
Angular Grid (max. ang.)         AngularGrid ... 1 (Lebedev-50)
Angular grid pruning method      GridPruning ... 4 (adaptive)
Weight generation scheme         WeightScheme... mBecke (2022)
Basis function cutoff            BFCut       ... 1.0000e-10
Integration weight cutoff        WCut        ... 1.0000e-14
Partially contracted basis set               ... on
Rotationally invariant grid construction     ... off
Angular grids for H and He will be reduced by one unit

Total number of grid points                  ...    35256
Total number of batches                      ...      305
Average number of points per batch           ...      115
Average number of grid points per atom       ...      653
UseSFitting                                  ... on

GRIDX 2
-------
General Integration Accuracy     IntAcc      ... 4.020
Radial Grid Type                 RadialGrid  ... OptM3 with GC (2021)
Angular Grid (max. ang.)         AngularGrid ... 2 (Lebedev-110)
Angular grid pruning method      GridPruning ... 4 (adaptive)
Weight generation scheme         WeightScheme... mBecke (2022)
Basis function cutoff            BFCut       ... 1.0000e-10
Integration weight cutoff        WCut        ... 1.0000e-14
Partially contracted basis set               ... on
Rotationally invariant grid construction     ... off
Angular grids for H and He will be reduced by one unit

Total number of grid points                  ...    79050
Total number of batches                      ...      641
Average number of points per batch           ...      123
Average number of grid points per atom       ...     1464
UseSFitting                                  ... on

GRIDX 3
-------
General Integration Accuracy     IntAcc      ... 4.338
Radial Grid Type                 RadialGrid  ... OptM3 with GC (2021)
Angular Grid (max. ang.)         AngularGrid ... 3 (Lebedev-194)
Angular grid pruning method      GridPruning ... 4 (adaptive)
Weight generation scheme         WeightScheme... mBecke (2022)
Basis function cutoff            BFCut       ... 1.0000e-10
Integration weight cutoff        WCut        ... 1.0000e-14
Partially contracted basis set               ... on
Rotationally invariant grid construction     ... off
Angular grids for H and He will be reduced by one unit

Total number of grid points                  ...   173713
Total number of batches                      ...     1380
Average number of points per batch           ...      125
Average number of grid points per atom       ...     3217
UseSFitting                                  ... on
Grids setup in   8.8 sec
Initializing property integral containers    ... done (  0.0 sec)

SHARK setup successfully completed in  11.6 seconds

Maximum memory used throughout the entire STARTUP-calculation: 100.9 MB


           ************************************************************
           *        Program running with 4 parallel MPI-processes     *
           *              working on a common directory               *
           ************************************************************
-------------------------------------------------------------------------------
                                 ORCA GUESS
                   Start orbitals & Density for SCF / CASSCF
-------------------------------------------------------------------------------

------------
SCF SETTINGS
------------
Hamiltonian:
 Density Functional     Method          .... DFT(GTOs)
 Exchange Functional    Exchange        .... WB97X-V
 Correlation Functional Correlation     .... WB97X-V
 Gradients option       PostSCFGGA      .... off
 Hybrid DFT is turned on
   Fraction HF Exchange ScalHFX         ....  0.167000
   Scaling of DF-GGA-X  ScalDFX         ....  0.000000
   Scaling of DF-GGA-C  ScalDFC         ....  1.000000
   Scaling of DF-LDA-C  ScalLDAC        ....  1.000000
   Perturbative correction              ....  0.000000
 Long-range corrected/Screened/Range-Separated Hybrid DFT is turned on
   Amount of maximum screened exact exchange              ....  0.833000
   Range separation parameter mu (erf(mu*r12)/r12)        ....  0.300000
   NL short-range parameter             ....  6.000000
   NL long-range parameter              ....  0.010000
 RI-approximation to the Coulomb term is turned on
   Number of AuxJ basis functions       .... 2038
   RIJ-COSX (HFX calculated with COS-X)).... on


General Settings:
 Integral files         IntName         .... conf_010
 Hartree-Fock type      HFTyp           .... RHF
 Total Charge           Charge          ....    0
 Multiplicity           Mult            ....    1
 Number of Electrons    NEL             ....  196
 Basis Dimension        Dim             ....  574
 Nuclear Repulsion      ENuc            ....   1923.9444013866 Eh

Convergence Acceleration:
 AO-DIIS                CNVDIIS         .... on
   Start iteration      DIISMaxIt       ....    12
   Startup error        DIISStart       ....  0.200000
   # of expansion vecs  DIISMaxEq       ....     5
   Bias factor          DIISBfac        ....   1.050
   Max. coefficient     DIISMaxC        ....  10.000
 MO-DIIS                CNVKDIIS        .... off
 Trust-Rad. Augm. Hess. CNVTRAH         .... auto
   Auto Start mean grad. ratio tolernc. ....  1.125000
   Auto Start start iteration           ....    50
   Auto Start num. interpolation iter.  ....    10
   Max. Number of Micro iterations      ....    24
   Max. Number of Macro iterations      .... Maxiter - #DIIS iter
   Number of Davidson start vectors     ....     2
   Converg. threshold    (grad. norm)   ....   5.000e-05
   Grad. Scal. Fac. for Micro threshold ....   0.100
   Minimum threshold for Micro iter.    ....   1.000e-02
   NR start threshold (gradient norm)   ....   1.000e-04
   Initial trust radius                 ....   0.400
   Minimum AH scaling param. (alpha)    ....   1.000
   Maximum AH scaling param. (alpha)    .... 1000.000
   Quad. conv. algorithm                .... NR
   White noise on init. David. guess    .... on
   Maximum white noise                  ....   0.010
   Pseudo random numbers                .... off
   Inactive MOs                         .... canonical
   Orbital update algorithm             .... Taylor
   Preconditioner                       .... Diag
   Full preconditioner red. dimension   ....   250
 SOSCF                 CNVSOSCF           .... on
   Start iteration     SOSCFMaxIt         ....   150
   Startup grad/error  SOSCFStart         ....  0.003300
   Hessian update      SOSCFHessUp        .... L-BFGS
   Autom. constraints  SOSCFAutoConstrain .... off
 Level Shifting         CNVShift        .... on
   Level shift para.    LevelShift      ....    0.2500
   Turn off err/grad.   ShiftErr        ....    0.0010
 Zerner damping         CNVZerner       .... off
 Static damping         CNVDamp         .... on
   Fraction old density DampFac         ....    0.7000
   Max. Damping (<1)    DampMax         ....    0.9800
   Min. Damping (>=0)   DampMin         ....    0.0000
   Turn off err/grad.   DampErr         ....    0.1000

SCF Procedure:
 Maximum # iterations   MaxIter         ....   125
 SCF integral mode      SCFMode         .... Direct
   Integral package                     .... SHARK and LIBINT hybrid scheme
 Reset frequency        DirectResetFreq ....    20
 Integral Threshold     Thresh          ....  1.000e-10 Eh
 Primitive CutOff       TCut            ....  1.000e-11 Eh

Convergence Tolerance:
 Convergence Check Mode ConvCheckMode   .... Total+1el-Energy
 Convergence forced     ConvForced      .... 0
 Energy Change          TolE            ....  1.000e-06 Eh
 1-El. energy change                    ....  1.000e-03 Eh
 Orbital Gradient       TolG            ....  5.000e-05
 Orbital Rotation angle TolX            ....  5.000e-05
 DIIS Error             TolErr          ....  1.000e-06

------------------------------
INITIAL GUESS: MODEL POTENTIAL
------------------------------
Loading Hartree-Fock densities                     ... done
Atomic calculation to generate a density for atom 0 (C  with ECP)
  Multiplicity assumed   :    1
  Atomic configuration   : 1s2 2s2 2p2 
  Number of open shells  : 1
  Command: /opt/apps/pkg/applications/orca/orca_6_1_0_linux_x86-64_shared_openmpi418/orca conf_010_atom6.inp "" > conf_010_atom6.out
Returned from the atomic calculation with res=0
Atomic calculation to generate a density for atom 6 (F  with ECP)
  Multiplicity assumed   :    2
  Atomic configuration   : 1s2 2s2 2p5 
  Number of open shells  : 1
  Command: /opt/apps/pkg/applications/orca/orca_6_1_0_linux_x86-64_shared_openmpi418/orca conf_010_atom9.inp "" > conf_010_atom9.out
Returned from the atomic calculation with res=0
Atomic calculation to generate a density for atom 14 (O  with ECP)
  Multiplicity assumed   :    3
  Atomic configuration   : 1s2 2s2 2p4 
  Number of open shells  : 1
  Command: /opt/apps/pkg/applications/orca/orca_6_1_0_linux_x86-64_shared_openmpi418/orca conf_010_atom8.inp "" > conf_010_atom8.out
Returned from the atomic calculation with res=0
Calculating cut-offs                               ... done
Initializing the effective Hamiltonian             ... done
Setting up the integral package (SHARK)            ... done
done (   1.8 sec)
done (   1.6 sec)
Mapping shells                                     ... done
Starting the XC term evaluation                    ... done (   0.5 sec)
  promolecular density results
     # of electrons  =    271.989105410
     EX              =   -168.150527161
     EC              =    -11.744370819
     EX+EC           =   -179.894897980
Transforming the Hamiltonian                       ... done (   0.1 sec)
done (   0.1 sec)
Back transforming the eigenvectors                 ... done (   0.3 sec)
done
                      ------------------
                      INITIAL GUESS DONE (   7.9 sec)
                      ------------------
             **** ENERGY FILE WAS UPDATED (conf_010.en.tmp) ****
Finished Guess after  10.1 sec
Maximum memory used throughout the entire GUESS-calculation: 55.3 MB


           ************************************************************
           *        Program running with 4 parallel MPI-processes     *
           *              working on a common directory               *
           ************************************************************

-------------------------------------------------------------------------------------------
                                      ORCA LEAN-SCF
                              memory conserving SCF solver
-------------------------------------------------------------------------------------------

----------------------------------------D-I-I-S--------------------------------------------
Iteration    Energy (Eh)           Delta-E    RMSDP     MaxDP     DIISErr   Damp  Time(sec)
-------------------------------------------------------------------------------------------
               ***  Starting incremental Fock matrix formation  ***
    1    -394.3764796860220940     0.00e+00  5.83e-03  9.41e-02  2.26e-01  0.700  75.0
    2    -394.9463038743108427    -5.70e-01  4.23e-03  6.69e-02  1.11e-01  0.700  30.4
                               ***Turning on AO-DIIS***
    3    -395.2108225086992661    -2.65e-01  2.44e-03  3.46e-02  5.82e-02  0.700  29.8
    4    -395.3678140952545164    -1.57e-01  5.37e-03  7.24e-02  3.37e-02  0.000  28.0
    5    -395.7096707727025660    -3.42e-01  4.50e-04  6.83e-03  7.20e-03  0.000  31.9
    6    -395.7114776304872521    -1.81e-03  2.33e-04  4.92e-03  3.57e-03  0.000  24.8
                              *** Initializing SOSCF ***
---------------------------------------S-O-S-C-F--------------------------------------
Iteration    Energy (Eh)           Delta-E    RMSDP     MaxDP     MaxGrad    Time(sec)
--------------------------------------------------------------------------------------
    7    -395.7119862679971902    -5.09e-04  1.21e-04  2.93e-03  1.98e-03    22.2
               *** Restarting incremental Fock matrix formation ***
    8    -395.7120179157157054    -3.16e-05  7.87e-05  1.79e-03  1.23e-03    70.5
    9    -395.7120694030302275    -5.15e-05  9.37e-05  2.31e-03  5.88e-04    44.3
   10    -395.7120835013586202    -1.41e-05  2.91e-05  1.26e-03  2.98e-04    42.2
   11    -395.7120890917747147    -5.59e-06  1.09e-05  2.78e-04  4.77e-05    35.7
   12    -395.7120892577815994    -1.66e-07  4.95e-06  9.79e-05  4.49e-05    28.5
                 **** Energy Check signals convergence ****

               *****************************************************
               *                     SUCCESS                       *
               *           SCF CONVERGED AFTER  12 CYCLES          *
               *****************************************************

 done (  131.628 sec)
Old exchange energy                            :    -40.322468468 Eh
New exchange energy                            :    -40.322501985 Eh
Exchange energy change after final integration :     -0.000033517 Eh
Total energy after final integration           :   -395.712123057 Eh
             **** ENERGY FILE WAS UPDATED (conf_010.en.tmp) ****

----------------
TOTAL SCF ENERGY
----------------

Total Energy       :       -395.71212305724009 Eh          -10767.87430 eV

Components:
Nuclear Repulsion  :       1923.94440138664481 Eh           52353.18875 eV
Electronic Energy  :      -2319.65649092714239 Eh          -63121.06213 eV
One Electron Energy:      -4463.95209414372221 Eh         -121470.31191 eV
Two Electron Energy:       2144.29560321657982 Eh           58349.24978 eV

Virial components:
Potential Energy   :       -709.37536931867544 Eh          -19303.08515 eV
Kinetic Energy     :        313.66324626143529 Eh            8535.21085 eV
Virial Ratio       :          2.26158269345787

DFT components:
N(Alpha)           :       98.000050235551 electrons
N(Beta)            :       98.000050235551 electrons
N(Total)           :      196.000100471102 electrons
E(X)               :      -51.261329468426 Eh       
E(C)               :       -7.927550473861 Eh       
E(XC)              :      -59.188879942287 Eh       

---------------
SCF CONVERGENCE
---------------

  Last Energy change         ...    1.6601e-07  Tolerance :   1.0000e-06
  Last MAX-Density change    ...    9.7870e-05  Tolerance :   1.0000e-05
  Last RMS-Density change    ...    4.9532e-06  Tolerance :   1.0000e-06
  Last DIIS Error            ...    1.9755e-03  Tolerance :   1.0000e-06
  Last Orbital Gradient      ...    4.4900e-05  Tolerance :   5.0000e-05
  Last Orbital Rotation      ...    1.7951e-04  Tolerance :   5.0000e-05


----------------
ORBITAL ENERGIES
----------------

  NO   OCC          E(Eh)            E(eV) 
   0   2.0000      -1.387415       -37.7535 
   1   2.0000      -1.382532       -37.6206 
   2   2.0000      -1.380257       -37.5587 
   3   2.0000      -1.379983       -37.5512 
   4   2.0000      -1.379487       -37.5378 
   5   2.0000      -1.376354       -37.4525 
   6   2.0000      -1.372472       -37.3469 
   7   2.0000      -1.367057       -37.1995 
   8   2.0000      -1.278382       -34.7865 
   9   2.0000      -1.183769       -32.2120 
  10   2.0000      -1.060197       -28.8494 
  11   2.0000      -1.052889       -28.6506 
  12   2.0000      -1.041919       -28.3521 
  13   2.0000      -1.030416       -28.0390 
  14   2.0000      -0.985480       -26.8163 
  15   2.0000      -0.963079       -26.2067 
  16   2.0000      -0.949598       -25.8399 
  17   2.0000      -0.922203       -25.0944 
  18   2.0000      -0.921286       -25.0695 
  19   2.0000      -0.918501       -24.9937 
  20   2.0000      -0.917324       -24.9616 
  21   2.0000      -0.915914       -24.9233 
  22   2.0000      -0.898449       -24.4480 
  23   2.0000      -0.857759       -23.3408 
  24   2.0000      -0.833908       -22.6918 
  25   2.0000      -0.799531       -21.7563 
  26   2.0000      -0.797305       -21.6958 
  27   2.0000      -0.793706       -21.5978 
  28   2.0000      -0.778663       -21.1885 
  29   2.0000      -0.777225       -21.1494 
  30   2.0000      -0.772291       -21.0151 
  31   2.0000      -0.761756       -20.7284 
  32   2.0000      -0.737756       -20.0754 
  33   2.0000      -0.736752       -20.0480 
  34   2.0000      -0.713665       -19.4198 
  35   2.0000      -0.710160       -19.3244 
  36   2.0000      -0.693859       -18.8809 
  37   2.0000      -0.690554       -18.7909 
  38   2.0000      -0.687404       -18.7052 
  39   2.0000      -0.684487       -18.6258 
  40   2.0000      -0.680262       -18.5109 
  41   2.0000      -0.669967       -18.2307 
  42   2.0000      -0.654225       -17.8024 
  43   2.0000      -0.644318       -17.5328 
  44   2.0000      -0.642547       -17.4846 
  45   2.0000      -0.639819       -17.4104 
  46   2.0000      -0.639588       -17.4041 
  47   2.0000      -0.638318       -17.3695 
  48   2.0000      -0.634844       -17.2750 
  49   2.0000      -0.632896       -17.2220 
  50   2.0000      -0.628441       -17.1007 
  51   2.0000      -0.618289       -16.8245 
  52   2.0000      -0.616503       -16.7759 
  53   2.0000      -0.614533       -16.7223 
  54   2.0000      -0.610412       -16.6102 
  55   2.0000      -0.607415       -16.5286 
  56   2.0000      -0.606026       -16.4908 
  57   2.0000      -0.603629       -16.4256 
  58   2.0000      -0.597678       -16.2636 
  59   2.0000      -0.595352       -16.2003 
  60   2.0000      -0.594089       -16.1660 
  61   2.0000      -0.588374       -16.0105 
  62   2.0000      -0.585402       -15.9296 
  63   2.0000      -0.579812       -15.7775 
  64   2.0000      -0.574659       -15.6373 
  65   2.0000      -0.567846       -15.4519 
  66   2.0000      -0.563785       -15.3414 
  67   2.0000      -0.552187       -15.0258 
  68   2.0000      -0.543703       -14.7949 
  69   2.0000      -0.539392       -14.6776 
  70   2.0000      -0.537090       -14.6150 
  71   2.0000      -0.535651       -14.5758 
  72   2.0000      -0.533016       -14.5041 
  73   2.0000      -0.526981       -14.3399 
  74   2.0000      -0.519318       -14.1313 
  75   2.0000      -0.517168       -14.0729 
  76   2.0000      -0.510005       -13.8780 
  77   2.0000      -0.506904       -13.7936 
  78   2.0000      -0.502550       -13.6751 
  79   2.0000      -0.501276       -13.6404 
  80   2.0000      -0.499765       -13.5993 
  81   2.0000      -0.498004       -13.5514 
  82   2.0000      -0.490948       -13.3594 
  83   2.0000      -0.488016       -13.2796 
  84   2.0000      -0.481491       -13.1020 
  85   2.0000      -0.468630       -12.7521 
  86   2.0000      -0.462719       -12.5912 
  87   2.0000      -0.461458       -12.5569 
  88   2.0000      -0.459182       -12.4950 
  89   2.0000      -0.422535       -11.4978 
  90   2.0000      -0.401381       -10.9221 
  91   2.0000      -0.388607       -10.5745 
  92   2.0000      -0.370885       -10.0923 
  93   2.0000      -0.369849       -10.0641 
  94   2.0000      -0.369342       -10.0503 
  95   2.0000      -0.368112       -10.0168 
  96   2.0000      -0.351599        -9.5675 
  97   2.0000      -0.336384        -9.1535 
  98   0.0000      -0.010338        -0.2813 
  99   0.0000       0.016453         0.4477 
 100   0.0000       0.046708         1.2710 
 101   0.0000       0.046816         1.2739 
 102   0.0000       0.048472         1.3190 
 103   0.0000       0.048958         1.3322 
 104   0.0000       0.049633         1.3506 
 105   0.0000       0.073161         1.9908 
 106   0.0000       0.078529         2.1369 
 107   0.0000       0.083875         2.2823 
 108   0.0000       0.086135         2.3439 
*Only the first 10 virtual orbitals were printed.

                    ********************************
                    * MULLIKEN POPULATION ANALYSIS *
                    ********************************

-----------------------
MULLIKEN ATOMIC CHARGES
-----------------------
   0 C :   -0.064356
   1 C :   -0.064703
   2 C :   -0.043463
   3 C :   -0.041538
   4 C :    0.036683
   5 C :    0.199683
   6 F :   -0.227210
   7 C :   -0.129097
   8 C :   -0.085371
   9 C :    0.065543
  10 C :    0.226687
  11 F :   -0.205522
  12 C :   -0.157138
  13 C :    0.284364
  14 O :   -0.278427
  15 O :   -0.225060
  16 C :    0.062492
  17 C :    0.054941
  18 C :    0.189806
  19 F :   -0.230550
  20 C :   -0.107680
  21 C :   -0.079026
  22 C :    0.060377
  23 C :    0.170598
  24 F :   -0.215189
  25 C :    0.193706
  26 F :   -0.209707
  27 C :    0.174042
  28 F :   -0.216641
  29 C :    0.025962
  30 C :    0.034066
  31 C :    0.040459
  32 C :    0.242584
  33 F :   -0.215764
  34 C :    0.069818
  35 C :    0.198639
  36 F :   -0.227529
  37 C :    0.036585
  38 H :    0.036097
  39 H :    0.028796
  40 H :    0.028685
  41 H :    0.042216
  42 H :    0.042867
  43 H :    0.044231
  44 H :    0.044050
  45 H :    0.032477
  46 H :    0.049428
  47 H :    0.041794
  48 H :    0.047556
  49 H :    0.045379
  50 H :    0.038015
  51 H :    0.054525
  52 H :    0.048560
  53 H :    0.032260
Sum of atomic charges:   -0.0000000

--------------------------------
MULLIKEN REDUCED ORBITAL CHARGES
--------------------------------
  0 C s       :     0.937826  s :     0.937826
      pz      :     1.050545  p :     3.052265
      px      :     0.958392
      py      :     1.043328
      dz2     :     0.012870  d :     0.074265
      dxz     :     0.013553
      dyz     :     0.015509
      dx2y2   :     0.011412
      dxy     :     0.020921

  1 C s       :     1.007576  s :     1.007576
      pz      :     0.961958  p :     2.955370
      px      :     0.970162
      py      :     1.023251
      dz2     :     0.021071  d :     0.101756
      dxz     :     0.020656
      dyz     :     0.019632
      dx2y2   :     0.015502
      dxy     :     0.024895

  2 C s       :     0.968560  s :     0.968560
      pz      :     0.987694  p :     2.974476
      px      :     0.953056
      py      :     1.033725
      dz2     :     0.021288  d :     0.100428
      dxz     :     0.020722
      dyz     :     0.018274
      dx2y2   :     0.017775
      dxy     :     0.022369

  3 C s       :     1.043514  s :     1.043514
      pz      :     0.934406  p :     2.869049
      px      :     0.974160
      py      :     0.960482
      dz2     :     0.019845  d :     0.128976
      dxz     :     0.024325
      dyz     :     0.018229
      dx2y2   :     0.032822
      dxy     :     0.033755

  4 C s       :     0.960812  s :     0.960812
      pz      :     1.006037  p :     2.915491
      px      :     0.926195
      py      :     0.983259
      dz2     :     0.011096  d :     0.087013
      dxz     :     0.018361
      dyz     :     0.010820
      dx2y2   :     0.025738
      dxy     :     0.020997

  5 C s       :     1.059491  s :     1.059491
      pz      :     0.830613  p :     2.555499
      px      :     0.895424
      py      :     0.829462
      dz2     :     0.027960  d :     0.185327
      dxz     :     0.036742
      dyz     :     0.027619
      dx2y2   :     0.047419
      dxy     :     0.045585

  6 F s       :     1.886016  s :     1.886016
      pz      :     1.779956  p :     5.317565
      px      :     1.815872
      py      :     1.721737
      dz2     :     0.004385  d :     0.023629
      dxz     :     0.004089
      dyz     :     0.005403
      dx2y2   :     0.004089
      dxy     :     0.005663

  7 C s       :     0.989781  s :     0.989781
      pz      :     1.065392  p :     3.028267
      px      :     0.975759
      py      :     0.987115
      dz2     :     0.016802  d :     0.111050
      dxz     :     0.024564
      dyz     :     0.013698
      dx2y2   :     0.025655
      dxy     :     0.030331

  8 C s       :     1.015362  s :     1.015362
      pz      :     0.954065  p :     2.939404
      px      :     0.978270
      py      :     1.007069
      dz2     :     0.011103  d :     0.130606
      dxz     :     0.023499
      dyz     :     0.023501
      dx2y2   :     0.038499
      dxy     :     0.034005

  9 C s       :     0.970524  s :     0.970524
      pz      :     0.997572  p :     2.877097
      px      :     0.923042
      py      :     0.956484
      dz2     :     0.008239  d :     0.086836
      dxz     :     0.016460
      dyz     :     0.011725
      dx2y2   :     0.023553
      dxy     :     0.026859

 10 C s       :     1.064512  s :     1.064512
      pz      :     0.869656  p :     2.519385
      px      :     0.938075
      py      :     0.711653
      dz2     :     0.015232  d :     0.189416
      dxz     :     0.031388
      dyz     :     0.035430
      dx2y2   :     0.051592
      dxy     :     0.055774

 11 F s       :     1.884345  s :     1.884345
      pz      :     1.867003  p :     5.296917
      px      :     1.909949
      py      :     1.519965
      dz2     :     0.003267  d :     0.024261
      dxz     :     0.001227
      dyz     :     0.006922
      dx2y2   :     0.006952
      dxy     :     0.005892

 12 C s       :     1.011142  s :     1.011142
      pz      :     1.107267  p :     3.047068
      px      :     0.920699
      py      :     1.019103
      dz2     :     0.010226  d :     0.098928
      dxz     :     0.016251
      dyz     :     0.018931
      dx2y2   :     0.026188
      dxy     :     0.027331

 13 C s       :     1.078795  s :     1.078795
      pz      :     0.709568  p :     2.356947
      px      :     0.877524
      py      :     0.769855
      dz2     :     0.074185  d :     0.279894
      dxz     :     0.075743
      dyz     :     0.038901
      dx2y2   :     0.046922
      dxy     :     0.044144

 14 O s       :     1.762110  s :     1.762110
      pz      :     1.358860  p :     4.477512
      px      :     1.733815
      py      :     1.384838
      dz2     :     0.012611  d :     0.038805
      dxz     :     0.007118
      dyz     :     0.009853
      dx2y2   :     0.005177
      dxy     :     0.004045

 15 O s       :     1.653609  s :     1.653609
      pz      :     1.578707  p :     4.528611
      px      :     1.252572
      py      :     1.697331
      dz2     :     0.008652  d :     0.042840
      dxz     :     0.010806
      dyz     :     0.006046
      dx2y2   :     0.009422
      dxy     :     0.007914

 16 C s       :     1.041909  s :     1.041909
      pz      :     1.003154  p :     2.724573
      px      :     0.701979
      py      :     1.019439
      dz2     :     0.019622  d :     0.171026
      dxz     :     0.036064
      dyz     :     0.018274
      dx2y2   :     0.047574
      dxy     :     0.049492

 17 C s       :     0.975393  s :     0.975393
      pz      :     0.995379  p :     2.886558
      px      :     0.925879
      py      :     0.965300
      dz2     :     0.009346  d :     0.083109
      dxz     :     0.019642
      dyz     :     0.010319
      dx2y2   :     0.021232
      dxy     :     0.022570

 18 C s       :     1.055956  s :     1.055956
      pz      :     0.907043  p :     2.570262
      px      :     0.908025
      py      :     0.755194
      dz2     :     0.021588  d :     0.183976
      dxz     :     0.035089
      dyz     :     0.028026
      dx2y2   :     0.050015
      dxy     :     0.049258

 19 F s       :     1.886090  s :     1.886090
      pz      :     1.843335  p :     5.320899
      px      :     1.858283
      py      :     1.619282
      dz2     :     0.003549  d :     0.023560
      dxz     :     0.002513
      dyz     :     0.005976
      dx2y2   :     0.005441
      dxy     :     0.006082

 20 C s       :     0.993420  s :     0.993420
      pz      :     1.010347  p :     2.995845
      px      :     0.972612
      py      :     1.012885
      dz2     :     0.015144  d :     0.118416
      dxz     :     0.022824
      dyz     :     0.015155
      dx2y2   :     0.030445
      dxy     :     0.034848

 21 C s       :     0.999326  s :     0.999326
      pz      :     1.005855  p :     2.951365
      px      :     0.984256
      py      :     0.961254
      dz2     :     0.030672  d :     0.128335
      dxz     :     0.036240
      dyz     :     0.020383
      dx2y2   :     0.019807
      dxy     :     0.021232

 22 C s       :     0.973822  s :     0.973822
      pz      :     0.984561  p :     2.877051
      px      :     0.911639
      py      :     0.980851
      dz2     :     0.021017  d :     0.088750
      dxz     :     0.023122
      dyz     :     0.010879
      dx2y2   :     0.013128
      dxy     :     0.020604

 23 C s       :     1.058107  s :     1.058107
      pz      :     0.740197  p :     2.587940
      px      :     0.911358
      py      :     0.936385
      dz2     :     0.044889  d :     0.183356
      dxz     :     0.051735
      dyz     :     0.031833
      dx2y2   :     0.021514
      dxy     :     0.033385

 24 F s       :     1.887879  s :     1.887879
      pz      :     1.594207  p :     5.303406
      px      :     1.843381
      py      :     1.865818
      dz2     :     0.007123  d :     0.023904
      dxz     :     0.006715
      dyz     :     0.005756
      dx2y2   :     0.001937
      dxy     :     0.002372

 25 C s       :     1.045667  s :     1.045667
      pz      :     0.931147  p :     2.585473
      px      :     0.643445
      py      :     1.010881
      dz2     :     0.028056  d :     0.175154
      dxz     :     0.057213
      dyz     :     0.017332
      dx2y2   :     0.026470
      dxy     :     0.046083

 26 F s       :     1.889131  s :     1.889131
      pz      :     1.943865  p :     5.296152
      px      :     1.436183
      py      :     1.916104
      dz2     :     0.002989  d :     0.024424
      dxz     :     0.005778
      dyz     :     0.000072
      dx2y2   :     0.008381
      dxy     :     0.007204

 27 C s       :     1.058089  s :     1.058089
      pz      :     0.753565  p :     2.584914
      px      :     0.893104
      py      :     0.938244
      dz2     :     0.045335  d :     0.182956
      dxz     :     0.049843
      dyz     :     0.031206
      dx2y2   :     0.022745
      dxy     :     0.033827

 28 F s       :     1.888157  s :     1.888157
      pz      :     1.623242  p :     5.304612
      px      :     1.814269
      py      :     1.867101
      dz2     :     0.006455  d :     0.023873
      dxz     :     0.007061
      dyz     :     0.005272
      dx2y2   :     0.002261
      dxy     :     0.002823

 29 C s       :     0.969207  s :     0.969207
      pz      :     1.001415  p :     2.915975
      px      :     0.921682
      py      :     0.992879
      dz2     :     0.021011  d :     0.088855
      dxz     :     0.022527
      dyz     :     0.010566
      dx2y2   :     0.013495
      dxy     :     0.021257

 30 C s       :     0.984702  s :     0.984702
      pz      :     0.935248  p :     2.883249
      px      :     0.968142
      py      :     0.979860
      dz2     :     0.009397  d :     0.097984
      dxz     :     0.023752
      dyz     :     0.010203
      dx2y2   :     0.022983
      dxy     :     0.031648

 31 C s       :     0.971234  s :     0.971234
      pz      :     0.963821  p :     2.897871
      px      :     0.952534
      py      :     0.981516
      dz2     :     0.008076  d :     0.090436
      dxz     :     0.021252
      dyz     :     0.010128
      dx2y2   :     0.021661
      dxy     :     0.029319

 32 C s       :     1.057994  s :     1.057994
      pz      :     0.886254  p :     2.511134
      px      :     0.824944
      py      :     0.799937
      dz2     :     0.014182  d :     0.188287
      dxz     :     0.034554
      dyz     :     0.031967
      dx2y2   :     0.056284
      dxy     :     0.051300

 33 F s       :     1.884525  s :     1.884525
      pz      :     1.902441  p :     5.307250
      px      :     1.741150
      py      :     1.663659
      dz2     :     0.002832  d :     0.023989
      dxz     :     0.003301
      dyz     :     0.004050
      dx2y2   :     0.005538
      dxy     :     0.008268

 34 C s       :     0.969459  s :     0.969459
      pz      :     0.997056  p :     2.873763
      px      :     0.891834
      py      :     0.984873
      dz2     :     0.005911  d :     0.086960
      dxz     :     0.019804
      dyz     :     0.010655
      dx2y2   :     0.029421
      dxy     :     0.021169

 35 C s       :     1.059524  s :     1.059524
      pz      :     0.897257  p :     2.556558
      px      :     0.913409
      py      :     0.745892
      dz2     :     0.026996  d :     0.185279
      dxz     :     0.033040
      dyz     :     0.028715
      dx2y2   :     0.047101
      dxy     :     0.049428

 36 F s       :     1.886105  s :     1.886105
      pz      :     1.847982  p :     5.317809
      px      :     1.869825
      py      :     1.600001
      dz2     :     0.003400  d :     0.023615
      dxz     :     0.002466
      dyz     :     0.005965
      dx2y2   :     0.005988
      dxy     :     0.005797

 37 C s       :     0.960972  s :     0.960972
      pz      :     1.005551  p :     2.915428
      px      :     0.928034
      py      :     0.981843
      dz2     :     0.008621  d :     0.087015
      dxz     :     0.018051
      dyz     :     0.013373
      dx2y2   :     0.023984
      dxy     :     0.022985

 38 H s       :     0.918830  s :     0.918830
      pz      :     0.019844  p :     0.045073
      px      :     0.011218
      py      :     0.014012

 39 H s       :     0.926426  s :     0.926426
      pz      :     0.017098  p :     0.044777
      px      :     0.013248
      py      :     0.014431

 40 H s       :     0.926534  s :     0.926534
      pz      :     0.010797  p :     0.044781
      px      :     0.014653
      py      :     0.019330

 41 H s       :     0.914697  s :     0.914697
      pz      :     0.009883  p :     0.043087
      px      :     0.013644
      py      :     0.019560

 42 H s       :     0.914051  s :     0.914051
      pz      :     0.017334  p :     0.043082
      px      :     0.012301
      py      :     0.013447

 43 H s       :     0.911571  s :     0.911571
      pz      :     0.018285  p :     0.044198
      px      :     0.011836
      py      :     0.014077

 44 H s       :     0.911769  s :     0.911769
      pz      :     0.010629  p :     0.044181
      px      :     0.013375
      py      :     0.020176

 45 H s       :     0.916224  s :     0.916224
      pz      :     0.015993  p :     0.051299
      px      :     0.012322
      py      :     0.022984

 46 H s       :     0.898367  s :     0.898367
      pz      :     0.014487  p :     0.052205
      px      :     0.017488
      py      :     0.020230

 47 H s       :     0.906394  s :     0.906394
      pz      :     0.015745  p :     0.051811
      px      :     0.014836
      py      :     0.021231

 48 H s       :     0.900141  s :     0.900141
      pz      :     0.021801  p :     0.052303
      px      :     0.014665
      py      :     0.015837

 49 H s       :     0.902130  s :     0.902130
      pz      :     0.023043  p :     0.052492
      px      :     0.013645
      py      :     0.015804

 50 H s       :     0.910699  s :     0.910699
      pz      :     0.015363  p :     0.051286
      px      :     0.015064
      py      :     0.020859

 51 H s       :     0.891343  s :     0.891343
      pz      :     0.017376  p :     0.054131
      px      :     0.015552
      py      :     0.021203

 52 H s       :     0.899146  s :     0.899146
      pz      :     0.015690  p :     0.052294
      px      :     0.011321
      py      :     0.025283

 53 H s       :     0.916441  s :     0.916441
      pz      :     0.018172  p :     0.051300
      px      :     0.014407
      py      :     0.018721



                     *******************************
                     * LOEWDIN POPULATION ANALYSIS *
                     *******************************

----------------------
LOEWDIN ATOMIC CHARGES
----------------------
   0 C :   -0.110623
   1 C :   -0.079772
   2 C :   -0.071039
   3 C :   -0.017516
   4 C :   -0.031355
   5 C :    0.048152
   6 F :   -0.066240
   7 C :   -0.038145
   8 C :   -0.016916
   9 C :   -0.015084
  10 C :    0.056435
  11 F :   -0.050256
  12 C :   -0.030786
  13 C :   -0.027266
  14 O :   -0.096686
  15 O :    0.032840
  16 C :   -0.008547
  17 C :   -0.010610
  18 C :    0.042497
  19 F :   -0.069078
  20 C :   -0.039213
  21 C :   -0.031758
  22 C :   -0.013540
  23 C :    0.038484
  24 F :   -0.060715
  25 C :    0.038376
  26 F :   -0.056033
  27 C :    0.037406
  28 F :   -0.062090
  29 C :   -0.020997
  30 C :   -0.013606
  31 C :   -0.026858
  32 C :    0.052541
  33 F :   -0.059253
  34 C :   -0.016512
  35 C :    0.048109
  36 F :   -0.066556
  37 C :   -0.031419
  38 H :    0.046518
  39 H :    0.043168
  40 H :    0.043148
  41 H :    0.045628
  42 H :    0.045851
  43 H :    0.053498
  44 H :    0.053414
  45 H :    0.054199
  46 H :    0.059257
  47 H :    0.060974
  48 H :    0.058682
  49 H :    0.057303
  50 H :    0.055840
  51 H :    0.053255
  52 H :    0.058735
  53 H :    0.054159

-------------------------------
LOEWDIN REDUCED ORBITAL CHARGES
-------------------------------
  0 C s       :     0.766780  s :     0.766780
      pz      :     1.063933  p :     3.098509
      px      :     0.971199
      py      :     1.063377
      dz2     :     0.041530  d :     0.245334
      dxz     :     0.045306
      dyz     :     0.051397
      dx2y2   :     0.036045
      dxy     :     0.071056

[...]
  28 F       0.098755      0.092267      0.000457     -0.010002      0.028592      0.036478      0.065467     -0.107976     -0.050055     -0.068728
  29 C       0.568636      0.117310      0.166589      0.001745      0.235048     -0.031125      0.132401     -0.225661      0.004072     -0.075631
  30 C      -0.495287     -0.213435     -0.052992     -0.066381     -0.048342      0.226256     -0.137842      0.078736      0.181036     -0.051491
  31 C       0.559299     -0.278025     -0.018033     -0.130366      0.003868     -0.290021      0.119547     -0.111225      0.160724     -0.087224
  32 C      -0.482903      0.282225      0.004304     -0.095937      0.078253      0.175774     -0.059008     -0.092793     -0.075304      0.089841
  33 F      -0.053993     -0.027392      0.047842      0.083604     -0.010848     -0.124494      0.036798      0.039190     -0.023572     -0.078538
  34 C       0.441426      0.015528     -0.036252      0.335442     -0.197164     -0.223908     -0.009170      0.066041     -0.045659     -0.071963
  35 C      -0.490423     -0.104452     -0.122937     -0.160004     -0.039357      0.153919      0.151747     -0.001867     -0.006255     -0.097191
  36 F      -0.015427     -0.018472      0.094297      0.007070      0.013882     -0.126134     -0.057590      0.001784     -0.089065      0.031855
  37 C       0.539375     -0.183662      0.135725      0.014915     -0.139982     -0.250655     -0.134032      0.001841     -0.116931     -0.001483
  38 H      -0.015943      0.029245     -0.047382      0.013080     -0.019446     -0.015605     -0.003622     -0.011706     -0.016190      0.003176
  39 H       0.000995      0.028731      0.048211      0.014031      0.012473     -0.009875     -0.001349     -0.003446      0.018542      0.003013
  40 H       0.008025     -0.052081      0.003534     -0.015445     -0.004217     -0.003860     -0.003430     -0.005385     -0.001667     -0.024676
  41 H      -0.016853      0.045289      0.026117      0.014347      0.014119      0.001933      0.001774      0.000735      0.008498      0.023072
  42 H      -0.008320     -0.052275     -0.031973     -0.021909     -0.007224      0.004576      0.001156      0.002560     -0.010460     -0.009539
  43 H       0.009782      0.049047      0.029035      0.016611      0.004779     -0.003320      0.000574     -0.000698      0.008413      0.008411
  44 H       0.016450     -0.039266     -0.025915     -0.010560     -0.010815      0.001716     -0.000673     -0.000454     -0.006952     -0.021313
  45 H       0.026267      0.035811      0.012742      0.015422      0.003285      0.007998     -0.001093      0.007498      0.006814      0.011694
  46 H       0.046776     -0.033628      0.006357     -0.010100      0.002178      0.012535     -0.000301      0.010052      0.003183     -0.009206
  47 H       0.030079      0.035415     -0.013916      0.011497     -0.005166      0.009098     -0.000194      0.008374     -0.007403      0.011322
  48 H       0.038703      0.012269     -0.038079      0.003046     -0.014329      0.008287     -0.000453      0.009808     -0.012042      0.006534
  49 H       0.032380     -0.006075      0.042295     -0.001116      0.016993      0.007906     -0.000658      0.009075      0.013540     -0.004574
  50 H      -0.038083     -0.045706      0.011946     -0.018459      0.003586     -0.006364     -0.000657     -0.008260      0.008579     -0.015190
  51 H       0.027792     -0.043130      0.028287     -0.017356      0.008262      0.004716     -0.000609      0.007414      0.012350     -0.014620
  52 H       0.027169      0.043536     -0.013746      0.016148     -0.008425      0.006660     -0.001403      0.006694     -0.006535      0.012486
  53 H       0.031953     -0.026398     -0.021051     -0.008265     -0.011371      0.008402     -0.000571      0.009964     -0.009775     -0.009114

 MBIS THIRD RADIAL MOMENT (A.U.):
  ATOM      <r^3>
   0 C   44.304289
   1 C   40.830960
   2 C   41.870721
   3 C   33.502077
   4 C   41.054497
   5 C   29.780906
   6 F   18.088106
   7 C   38.854453
   8 C   32.195835
   9 C   40.450039
  10 C   28.779900
  11 F   18.095704
  12 C   41.920272
  13 C   22.333603
  14 O   25.782414
  15 O   23.904092
  16 C   29.549861
  17 C   41.026044
  18 C   29.889168
  19 F   18.115139
  20 C   37.136928
  21 C   33.519772
  22 C   39.680794
  23 C   31.620078
  24 F   18.093030
  25 C   33.827211
  26 F   17.901629
  27 C   31.640371
  28 F   18.104390
  29 C   39.921876
  30 C   36.405779
  31 C   39.878643
  32 C   28.914745
  33 F   18.090439
  34 C   40.510358
  35 C   29.790851
  36 F   18.091790
  37 C   41.053760
  38 H    2.353949
  39 H    2.378871
  40 H    2.379525
  41 H    2.288339
  42 H    2.285641
  43 H    2.211327
  44 H    2.211948
  45 H    2.016533
  46 H    1.907457
  47 H    1.904172
  48 H    1.925389
  49 H    1.966889
  50 H    2.130164
  51 H    1.916245
  52 H    1.913797
  53 H    2.016786

-------------------------
RESP CHARGES GENERATION
-------------------------
Number of atoms                    ...           54
Number of "pure atoms"             ...           54
Grid spacing                       ...     0.300000
Point Cut-Off                      ...     2.800000
Van-der-Waals Radii                ...        COSMO
Total charge                       ...            0
Penalty function                   ... hyperbolic
Penalty function wa                ... 0.000500
Penalty function wb                ... 0.100000
Dipole moment constraint           ...        FALSE
Equivalent atom charge constraint  ...        FALSE

Grid generated                     ...      0.0 sec
Grid points                        ...        28219
Potential calculated               ...     10.4 sec
RespFile stored                    ...           ok

Iter     dqmax
--------------

0     0.915968
1     0.039076
2     0.004895
3     0.000644
4     0.000085
5     0.000011
6     0.000001
7     0.000000

Charges calculated                 ...      1.3 sec

RESP Charges            
--------------------------------
  0   C   :      -0.461802
  1   C   :       0.255357
  2   C   :      -0.082412
  3   C   :       0.089668
  4   C   :      -0.406387
  5   C   :       0.351178
  6   F   :      -0.197263
  7   C   :      -0.252021
  8   C   :       0.413254
  9   C   :      -0.503628
 10   C   :       0.505226
 11   F   :      -0.209852
 12   C   :      -0.563425
 13   C   :       0.909782
 14   O   :      -0.531286
 15   O   :      -0.397005
 16   C   :       0.429829
 17   C   :      -0.453190
 18   C   :       0.334309
 19   F   :      -0.196989
 20   C   :       0.003937
 21   C   :       0.132143
 22   C   :      -0.425091
 23   C   :       0.325943
 24   F   :      -0.187833
 25   C   :       0.095101
 26   F   :      -0.150631
 27   C   :       0.298191
 28   F   :      -0.182658
 29   C   :      -0.409533
 30   C   :      -0.170418
 31   C   :      -0.389180
 32   C   :       0.511664
 33   F   :      -0.209198
 34   C   :      -0.530112
 35   C   :       0.352203
 36   F   :      -0.204143
 37   C   :      -0.400788
 38   H   :       0.113986
 39   H   :       0.107815
 40   H   :       0.108018
 41   H   :      -0.017285
 42   H   :      -0.015773
 43   H   :       0.060637
 44   H   :       0.058047
 45   H   :       0.223886
 46   H   :       0.247075
 47   H   :       0.249960
 48   H   :       0.242939
 49   H   :       0.234370
 50   H   :       0.180549
 51   H   :       0.242347
 52   H   :       0.247242
 53   H   :       0.223246
--------------------------------
Total charge:     0.000000
--------------------------------

RESP charges calculated...

Timings:
Grid generation                 ...        0.021 sec (=   0.000 min)
Potential calculation           ...       10.406 sec (=   0.173 min)
Fit to the potential            ...        1.298 sec (=   0.022 min)
------------------------------------------------------------------------------

-------
TIMINGS
-------

Total SCF time: 0 days 0 hours 12 min 23 sec 

Total time                  ....     743.513 sec
Sum of individual times     ....     720.369 sec  ( 96.9%)

SCF preparation             ....       2.917 sec  (  0.4%)
Fock matrix formation       ....     590.706 sec  ( 79.4%)
  Startup                   ....       0.119 sec  (  0.0% of F)
  Split-RI-J                ....      46.341 sec  (  7.8% of F)
  Chain of spheres X        ....     547.197 sec  ( 92.6% of F)
  XC integration            ....      18.905 sec  (  3.2% of F)
    XC Preparation          ....       0.000 sec  (  0.0% of XC)
    Basis function eval.    ....       4.690 sec  ( 24.8% of XC)
    Density eval.           ....       3.957 sec  ( 20.9% of XC)
    XC-Functional eval.     ....       1.148 sec  (  6.1% of XC)
    XC-Potential eval.      ....       4.788 sec  ( 25.3% of XC)
Diagonalization             ....       0.000 sec  (  0.0%)
Density matrix formation    ....       0.495 sec  (  0.1%)
Total Energy calculation    ....       0.313 sec  (  0.0%)
Population analysis         ....     122.187 sec  ( 16.4%)
Orbital Transformation      ....       0.384 sec  (  0.1%)
Orbital Orthonormalization  ....       0.000 sec  (  0.0%)
DIIS solution               ....       2.311 sec  (  0.3%)
SOSCF solution              ....       1.057 sec  (  0.1%)
Finished LeanSCF after 743.6 sec

Maximum memory used throughout the entire LEANSCF-calculation: 117.1 MB


-------------------------------------------------------------------------------
                          DFT DISPERSION CORRECTION                            
                                                                               
                                DFTD4 V3.4.0                                   
-------------------------------------------------------------------------------
The wB97X-3c composite method is recognized
Using three-body term ABC
Active option DFTDOPT                   ...         5   

-------------------------   ----------------
Dispersion correction           -0.087658063
-------------------------   ----------------


-------------------------   --------------------
FINAL SINGLE POINT ENERGY      -395.799781119989
-------------------------   --------------------



           ************************************************************
           *        Program running with 4 parallel MPI-processes     *
           *              working on a common directory               *
           ************************************************************

------------------------------------------------------------------------------
                              ORCA PROPERTY CALCULATIONS
------------------------------------------------------------------------------

GBWName                                 ... conf_010.gbw
Number of atoms                         ...     54
Number of basis functions               ...    574
Max core memory                         ...   4000 MB

Electric properties:
Dipole moment                           ... YES
Quadrupole moment                       ...  NO
Static polarizability (Dipole/Dipole)   ...  NO
Static polarizability (Dipole/Quad.)    ...  NO
Static polarizability (Quad./Quad.)     ...  NO
Static polarizability (Velocity)        ...  NO
Static hyperpolarizability              ...  NO

Atomic electric properties:
Dipole moment                           ...  NO
Quadrupole moment                       ...  NO
Static polarizability                   ...  NO

Choice of electric origin               ... Center of mass
Position of electric origin             ...    -2.882790    -0.306407     0.465558

General magnetic properties:
Magnetizability                         ...  NO

EPR properties:
g-Tensor (aka g-matrix)                 ...  NO
Zero-Field splitting spin-orbit         ...  NO
Zero-field splitting spin-spin          ...  NO
Hyperfine couplings                     ...  NO (   0 nuclei)
Quadrupole couplings                    ...  NO (   0 nuclei)
Contact density                         ...  NO (   0 nuclei)

NMR properties:
Chemical shifts                         ...  NO (   0 nuclei)
Spin-rotation constants                 ...  NO (   0 nuclei)
Spin-spin couplings                     ...  NO (   0 nuclei,    0 pairs)

Choice of magnetic origin               ... GIAO
Position of magnetic origin             ...     0.000000     0.000000     0.000000

Properties with geometric perturbations:
SCF Hessian                             ...  NO
IR spectrum                             ...  NO
VCD spectrum                            ...  NO
X-ray spectroscopy properties:
SCF XES/XAS/RIXS spectra                ...  NO

SCF SOC stabilization energy            ...  NO
Diagonal Born-Oppenheimer correction    ...  NO

-------------
DIPOLE MOMENT
-------------

Method             : SCF
Type of density    : Electron Density
Multiplicity       :   1
Irrep              :   0
Energy             :  -395.7121230572400918 Eh
Basis              : AO
                                X                 Y                 Z
Electronic contribution:    -68.996917458      -9.485565305      10.702281840
Nuclear contribution   :     72.738721749       9.758395008     -11.379665294
                        -----------------------------------------
Total Dipole Moment    :      3.741804291       0.272829703      -0.677383454
                        -----------------------------------------
Magnitude (a.u.)       :      3.812398686
Magnitude (Debye)      :      9.690347356



--------------------
Rotational spectrum 
--------------------
 
Rotational constants in cm-1:             0.011613             0.000759             0.000738 
Rotational constants in MHz :           348.162386            22.746386            22.112848 

Dipole components along the rotational axes: 
x,y,z [a.u.] :    -3.765054    -0.433587     0.413227 
x,y,z [Debye]:    -9.570006    -1.102089     1.050339 

 

Dipole moment calculation done in   0.0 sec 

Maximum memory used throughout the entire PROP-calculation: 57.6 MB

--------------------------------
SUGGESTED CITATIONS FOR THIS RUN
--------------------------------

Below you find a list of papers that are relevant to this ORCA run
We neither can nor want to force you to cite these papers, but we appreciate if you do
You receive ORCA, which is the product of decades of hard work by many enthusiastic individuals, for free
The only thing we kindly ask in return is that you cite our papers,
We deeply appreciate it, if you show your appreciation for ORCA by not just citing the generic ORCA reference.

Please note that relegating all ORCA citations to the supporting information does *not* help us.
SI sections are not indexed - citations you put there will not count into any citation statistics
But we need these citations in order to attract the funding resources that allow us to do what we are doing

Therefore, if you are a happy ORCA user, please consider citing a few of the papers listed below in the main body of your paper

In addition to the list printed below, the program has created the file conf_010.bibtex that contains the list in bibtex format
You can import this file easily into all common literature databanks and citation aid programs


List of essential papers. We consider these as the minimum necessary citations

  1. Mueller, M.; Hansen, A.; Grimme, S.
     wB97X-3c: A composite range-separated hybrid DFT method with a molecule-optimized polarized valence double-zeta basis set
     J. Chem. Phys. 2023 158 , 014103
     doi.org/10.1063/5.0133026
  2. Neese, F.
     Software update: the ORCA program system, version 6.0
     WIRES Comput. Molec. Sci. 2025 15(1), e70019
     doi.org/10.1002/wcms.7019

List of papers to cite with high priority. The work reported in these papers was absolutely
necessary for this run to complete.
Our perspective: the developers of density functionals and basis sets usually get cited in chemistry papers
Good! But without the algorithms to do something with them, the functionals or basis sets would not do anything.
Hence, in our opinion, the algorithm design and method developments papers are equally worthy of getting cited

  1. Neese, F.
     An improvement of the resolution of the identity approximation for the formation of the Coulomb matrix
     J. Comp. Chem. 2003 24(14), 1740-1747
     doi.org/10.1002/jcc.10318
  2. Neese, F.; Wennmohs, F.; Hansen, A.; Becker, U.
     Efficient, approximate and parallel Hartree-Fock and hybrid DFT calculations. A 'chain-of-spheres' algorithm for the Hartree-Fock exchange
     Chem. Phys. 2009 356(1-3), 98-109
     doi.org/10.1016/j.chemphys.2008.10.036
  3. Caldeweyher, E.; Bannwarth, C.; Grimme, S.
     Extension of the D3 dispersion coefficient model
     J. Chem. Phys. 2017 147 , 034112
     doi.org/10.1063/1.4993215
  4. Caldeweyher, E.; Ehlert, S.; Hansen, A.; Neugebauer, H.; Spicher, S.; Bannwarth, C.; Grimme, S.
     A generally applicable atomic-charge dependent London dispersion correction
     J. Chem. Phys. 2019 150 , 154122
     doi.org/10.1063/1.5090222
  5. Caldeweyher, E.; Mewes, J.; Ehlert, S.; Grimme, S.
     Extension and evaluation of the D4 London-dispersion model for periodic systems
     Phys. Chem. Chem. Phys. 2020 22(16), 8499-8512
     doi.org/10.1039/D0CP00502A
  6. Helmich-Paris, B.; de Souza, B.; Neese, F.; Izsák, R.
     An improved chain of spheres for exchange algorithm
     J. Chem. Phys. 2021 155(10), 104109
     doi.org/10.1063/5.0058766
  7. Neese, F.
     The SHARK Integral Generation and Digestion System
     J. Comp. Chem. 2022 44(3), 381
     doi.org/10.1002/jcc.26942
  8. Wittmann, L.; Gordiy, I.; Friede, M.; Helmich-Paris, B.; Grimme, S.; Hansen, A.; Bursch, M.
     Extension of the D3 and D4 London Dispersion Corrections to the full Actinides Series
     Phys. Chem. Chem. Phys. 2024 26(32), 21379-21394
     doi.org/10.1039/D4CP01514B

List of suggested additional citations. These are papers that are important in the 'surrounding' of 
of this run, or papers that preceded the highly important papers. If you like your results we are grateful for a citation.

  1. Izsak, R.; Neese, F.
     An overlap fitted chain of spheres exchange method
     J. Chem. Phys. 2011 135 , 144105
     doi.org/10.1063/1.3646921
  2. Izsak, R.; Hansen, A.; Neese, F.
     The resolution of identity and chain of spheres approximations for the LPNO-CCSD singles Fock term
     Molec. Phys. 2012 110 , 2413-2417
     doi.org/10.1080/00268976.2012.687466
  3. Neese, F.
     The ORCA program system
     WIRES Comput. Molec. Sci. 2012 2(1), 73-78
     doi.org/10.1002/wcms.81
  4. Izsak, R.; Neese, F.; Klopper, W.
     Robust fitting techniques in the chain of spheres approximation to the Fock exchange: The role of the complementary space
     J. Chem. Phys. 2013 139 , 
     doi.org/10.1063/1.4819264
  5. Neese, F.
     Software update: the ORCA program system, version 4.0
     WIRES Comput. Molec. Sci. 2018 8(1), 1-6
     doi.org/10.1002/wcms.1327
  6. Neese, F.; Wennmohs, F.; Becker, U.; Riplinger, C.
     The ORCA quantum chemistry program package
     J. Chem. Phys. 2020 152(22), 224108
     doi.org/10.1063/5.0004608
  7. Neese, F.
     Software update: The ORCA program system—Version 5.0
     WIRES Comput. Molec. Sci. 2022 12(1), e1606
     doi.org/10.1002/wcms.1606

List of optional additional citations

  1. Neese, F.
     Approximate second-order SCF convergence for spin unrestricted wavefunctions
     Chem. Phys. Lett. 2000 325(1-3), 93-98
     doi.org/10.1016/s0009-2614(00)00662-x

Timings for individual modules:

Sum of individual times          ...      770.465 sec (=  12.841 min)
Startup calculation              ...       13.865 sec (=   0.231 min)   1.8 %
SCF iterations                   ...      754.721 sec (=  12.579 min)  98.0 %
Property calculations            ...        1.879 sec (=   0.031 min)   0.2 %
                             ****ORCA TERMINATED NORMALLY****
TOTAL RUN TIME: 0 days 0 hours 12 minutes 52 seconds 356 msec
