Loading openmpi/5.0.6/gcc-14.2.0
  Loading requirement: gcc/14.2.0

                                 *****************
                                 * O   R   C   A *
                                 *****************

                                            #,                                       
                                            ###                                      
                                            ####                                     
                                            #####                                    
                                            ######                                   
                                           ########,                                 
                                     ,,################,,,,,                         
                               ,,#################################,,                 
                          ,,##########################################,,             
                       ,#########################################, ''#####,          
                    ,#############################################,,   '####,        
                  ,##################################################,,,,####,       
                ,###########''''           ''''###############################       
              ,#####''   ,,,,##########,,,,          '''####'''          '####       
            ,##' ,,,,###########################,,,                        '##       
           ' ,,###''''                  '''############,,,                           
         ,,##''                                '''############,,,,        ,,,,,,###''
      ,#''                                            '''#######################'''  
     '                                                          ''''####''''         
             ,#######,   #######,   ,#######,      ##                                
            ,#'     '#,  ##    ##  ,#'     '#,    #''#        ,####,    ,#,          
            ##       ##  ##   ,#'  ##            #'  '#       #'       ,# #          
            ##       ##  #######   ##           ,######,      #####,      #          
            '#,     ,#'  ##    ##  '#,     ,#' ,#      #,     #,   #      #          
             '#######'   ##     ##  '#######'  #'      '#     '####' #    #          



                #########################################################
                #                        -***-                          #
                #          Department of theory and spectroscopy        #
                #                                                       #
                #                      Frank Neese                      #
                #                                                       #
                #     Directorship, Architecture, Infrastructure        #
                #                    SHARK, DRIVERS                     #
                #        Core code/Algorithms in most modules           #
                #                                                       #
                #        Max Planck Institute fuer Kohlenforschung      #
                #                Kaiser Wilhelm Platz 1                 #
                #                 D-45470 Muelheim/Ruhr                 #
                #                      Germany                          #
                #                                                       #
                #                  All rights reserved                  #
                #                        -***-                          #
                #########################################################


                         Program Version 6.1.0  -  RELEASE   -
                                (GIT: $679e74b$)
                          ($2025-06-10 18:02:51 +0200$)


 With contributions from (in alphabetic order):
[Max-Planck-Institut fuer Kohlenforschung]                               
  Daniel Aravena         : Magnetic Suceptibility                        
  Michael Atanasov       : Ab Initio Ligand Field Theory (pilot matlab implementation)
  Alexander A. Auer      : GIAO ZORA, VPT2 properties, NMR spectrum      
  Ute Becker             : All parallelization in ORCA, NUMFREQ, NUMCALC 
  Giovanni Bistoni       : ED, misc. LED, open-shell LED, HFLD           
  Dmytro Bykov           : pre 5.0 version of the SCF Hessian            
  Marcos Casanova-Páez   : Triplet and SCS-CIS(D). UHF-(DLPNO)-IP/EA/STEOM-CCSD. UHF-CVS-IP/STEOM-CCSD   
  Vijay G. Chilkuri      : MRCI spin determinant printing, contributions to CSF-ICE 
  Pauline Colinet        : FMM embedding                                 
  Dipayan Datta          : RHF DLPNO-CCSD density                        
  Achintya Kumar Dutta   : EOM-CC, STEOM-CC                              
  Nicolas Foglia         : Exact transition moments, OPA infrastructure, MCD improvements    
  Dmitry Ganyushin       : Spin-Orbit,Spin-Spin,Magnetic field MRCI      
  Miquel Garcia-Rates    : C-PCM and meta-GGA Hessian, CCSD/C-PCM, Gaussian charge scheme 
  Tiago L. C. Gouveia    : GS-ROHF, GS-ROCIS                             
  Yang Guo               : DLPNO-NEVPT2, F12-NEVPT2, CIM, IAO-localization        
  Andreas Hansen         : Spin unrestricted coupled pair/coupled cluster methods 
  Ingolf Harden          : AUTO-CI MPn and infrastructure                
  Benjamin Helmich-Paris : MC-RPA, TRAH-(SCF,CASSCF), AVAS, COSX integrals, SCF dyn. polar., MC-PDFT, srDFT 
  Lee Huntington         : MR-EOM, pCC                                   
  Robert Izsak           : Overlap fitted RIJCOSX, COSX-SCS-MP3, EOM     
  Riya Kayal             : Wick's Theorem for AUTO-CI, AUTO-CI UHF-CCSDT 
  Emily Kempfer          : AUTO-CI RHF CISDT and CCSDT, approximate NEVPT4
  Christian Kollmar      : KDIIS, OOCD, Brueckner-CCSD(T), CCSD density, CASPT2, CASPT2-K, improved NEVPT2 
  Axel Koslowski         : Symmetry handling                             
  Simone Kossmann        : meta-GGA functionals, TD-DFT gradient, OOMP2, (MP2 Hessian; deprecated post 5.0) 
  Lucas Lang             : DCDCAS, Hyperfine gauge corrections, ICE-SOC+SSC
  Marvin Lechner         : AUTO-CI (C++ implementation), FIC-MRCC        
  Spencer Leger          : CASSCF response                               
  Dagmar Lenk            : GEPOL surface, SMD, ORCA-2-JSON               
  Dimitrios Liakos       : Extrapolation schemes; Compound Job, Property file
  Dimitrios Manganas     : Further ROCIS development; embedding schemes. LFT, Crystal Embedding 
  Dimitrios Pantazis     : SARC Basis sets                               
  Anastasios Papadopoulos: AUTO-CI, single reference methods and gradients 
  Taras Petrenko         : pre 6.0 DFT Hessian and TD-DFT gradient,  ECA, NRVS 
  Petra Pikulova         : Analytic Raman intensities                    
  Peter Pinski           : DLPNO-MP2, DLPNO-MP2 Gradient                 
  Shashank Vittal Rao    : ES-AILFT, MagRelax                            
  Christoph Reimann      : Effective Core Potentials                     
  Marius Retegan         : Local ZFS, SOC                                
  Christoph Riplinger    : Optimizer, TS searches, QM/MM, DLPNO-CCSD(T), (RO)-DLPNO pert. Triples 
  Michael Roemelt        : Original ROCIS implementation, recursive CI coupling coefficients
  Masaaki Saitow         : Open-shell DLPNO-CCSD energy and density      
  Barbara Sandhoefer     : DKH picture change effects                    
  Yorick L. A. Schmerwitz: GMF and freeze-and-release deltaSCF, NEB S-IDPP initial path                    
  Kantharuban Sivalingam : CASSCF convergence/infrastructure, NEVPT2, NEVPT3, NEVPT4(SD), FIC-MRCI and CEPA variants
  Bernardo de Souza      : ESD, SOC TD-DFT                               
  Georgi L. Stoychev     : AutoAux, RI-MP2 NMR, DLPNO-MP2 response, X2C  
  Van Anh Tran           : RI-MP2 g-tensors                              
  Willem Van den Heuvel  : Paramagnetic NMR                              
  Zikuan Wang            : NOTCH, Electric field optimization            
  Frank Wennmohs         : Technical directorship and infrastructure     
  Hang Xu                : AUTO-CI-Response properties                   
                                                                         
[FACCTs GmbH]                                                            
  Markus Bursch, Nicolas Foglia, Miquel Garcia-Rates, Ingolf Harden, Hagen Neugebauer, Anastasios Papadopoulos, 
  Christoph Riplinger, Bernardo de Souza, Georgi L. Stoychev                                                    
                                                                 
  APM, various basis sets, CI-OPT, improved COSX, DLPNO-Multilevel,           
  DOCKER, DRACO, updates on ESD, Fragmentator, GOAT, IRC, LR-CPCM, L-BFGS, MBIS, meta-GGA TD-DFT gradient, ML-optimized integration grids, 
  MM, NACMEs, nearIR, NEB, NEB-TS, NL-DFT gradient (VV10), 2- and 3-layer-ONIOM, interface openCOSMO-RS, QMMM,   
  Crystal-QMMM, RESP, rigid body optimization, SF, symmetry and pop. for TD-DFT, various functionals, SOLVATOR                                   
                                                                         
[Other institutions]                                                     
  V. Asgeirsson          : NEB                                           
  Christoph Bannwarth    : sTDA-DFT, sTD-DFT, PBEh-3c, B97-3c, D3        
  Giovanni Bistoni       : ETS/NOCV, ADLD/ADEX, COVALED                  
  Martin Brehm           : Molecular dynamics                            
  Ronald Cardenas        : ETS/NOCV                                      
  Martina Colucci        : COVALED                                       
  Sebastian Ehlert       : rSCAN, r2SCAN, r2SCAN-3c, D4, dhf basis sets  
  Marvin Friede          : D4 for Fr, Ra, Ac-Lr                          
  Lars Goerigk           : TD-DFT with DH, B97 family of functionals     
  Stefan Grimme          : VdW corrections, initial TS optimization, DFT functionals, gCP, sTDA/sTD-DF 
  Waldemar Hujo          : DFT-NL                                        
  H. Jonsson             : NEB                                           
  Holger Kruse           : gCP                                           
  Marcel Mueller         : wB97X-3c, vDZP basis set                      
  Hagen Neugebauer       : wr2SCAN, Native XTB                           
  Gianluca Regni         : ADLD/ADEX                                     
  Tobias Risthaus        : pre 6.0 range-separated hybrid DFT and stability analysis
  Lukas Wittmann         : regularized MP2, r2SCAN double-hybrids, wr2SCAN        
                                                                         
We gratefully acknowledge several colleagues who have allowed us to      
interface, adapt or use parts of their codes:                            
  Ed Valeev, F. Pavosevic, A. Kumar             : LibInt (2-el integral package), F12 methods 
  Garnet Chan, S. Sharma, J. Yang, R. Olivares  : DMRG                   
  Ulf Ekstrom                                   : XCFun DFT Library      
  Mihaly Kallay                                 : mrcc  (arbitrary order and MRCC methods)
  Frank Weinhold                                : gennbo (NPA and NBO analysis)           
  Simon Mueller                                 : openCOSMO-RS                            
  Christopher J. Cramer and Donald G. Truhlar   : smd solvation model                     
  S Lehtola, MJT Oliveira, MAL Marques          : LibXC Library                           
  Liviu Ungur et al                             : ANISO software                          


 Your calculation uses the libint2 library for the computation of 2-el integrals
 For citations please refer to: http://libint.valeyev.net

 Your ORCA version has been built with support for libXC version: 7.0.0
 For citations please refer to: https://libxc.gitlab.io

 This ORCA versions uses:
   CBLAS   interface :  Fast vector & matrix operations
   LAPACKE interface :  Fast linear algebra routines
   SCALAPACK package :  Parallel linear algebra routines
   Shared memory     :  Shared parallel matrices
   BLAS/LAPACK       :  OpenBLAS 0.3.29  USE64BITINT DYNAMIC_ARCH NO_AFFINITY Cooperlake SINGLE_THREADED
        Core in use  :  Cooperlake
   Copyright (c) 2011-2014, The OpenBLAS Project


  ***********************************
  * Starting time: Wed May 13 14:54:46 2026
  * Host name:     node045.aire.lee.alces.network
  * Process ID:    972945
  * Working dir.:  /tmp/job.4919725
  ***********************************

NOTE: MaxCore=4000 MB was set to SCF,MP2,MDCI,CIPSI,MRCI,RASCI and CIS
      => If you want to overwrite this, your respective input block should be placed after the MaxCore statement


***************************************
The coordinates will be read from file: conf_024.xyz
***************************************


Your calculation utilizes the atom-pairwise dispersion correction
based on EEQ partial charges (D4)


================================================================================

cite the ECPs for C  [vDZP-ECP], F  [vDZP-ECP], O  [vDZP-ECP] as follows:
   B-Ne (ecp-2-mwb), Al-Ar (ecp-10-mwb), Ga-Kr (ecp-28-mwb), Y-Cd (ecp-28-mwb), In-Xe (ecp-46-mwb):
     A. Bergner, M. Dolg, W. Küchle, H. Stoll, and H. Preuß, Mol. Phys. 80, 1431 (1993)., T. Leininger, A. Berning, A. Nicklass, H. Stoll, H.-J. Werner, and H.-J.Flad, Chem. Phys. 217, 19 (1997).
   Na-Mg, K-Ca, Rb-Sr, Cs-Ba (CRENBL):
     L. Fernandez Pacios and P. A. Christiansen, J. Chem. Phys. 82, 2664 (1985)., M. M. Hurley, L. F. Pacios, P. A. Christiansen, R. B. Ross, and W. C. Ermler, J. Chem. Phys. 84, 6840 (1986)., L. A. LaJohn, P. A. Christiansen, R. B. Ross, T. Atashroo, and W. C. Ermler, J. Chem. Phys. 87, 2812 (1987)., R. B. Ross, J. M. Powers, T. Atashroo, W. C. Ermler, L. A. LaJohn, and P. A. Christiansen, J. Chem. Phys. 93, 6654 (1990). 
   Sc-Zn (ecp-10-mdf):
     M. Dolg, U. Wedig, H. Stoll, and H. Preuss, J. Chem. Phys. 86, 866 (1986). 
   Y-Cd (ecp-28-mwb), Hf-Hg (ecp-60-mwb):
     D. Andrae, U. Häußermann, M. Dolg, H. Stoll, and H. Preuß, Theor. Chim. Acta 77, 123 (1990). 
   La (ecp-46-mwb):
     M. Dolg, H. Stoll, and H. Preuss, J. Chem. Phys. 90, 1730 (1989)., M. Dolg, H. Stoll, and H. Preuss, Theor. Chim. Acta 85, 441 (1993).
   Ce-Lu (SBKJC-ecp):
     T. R. Cundari and W. J. Stevens, J. Chem. Phys. 98, 5555 (1993).
   Tl-Rn (ecp-78-mwb):
     W. Küchle, M. Dolg, H. Stoll, and H. Preuss, Mol. Phys. 74, 1245 (1991).

ECP parameters for C  [vDZP-ECP], F  [vDZP-ECP], O  [vDZP-ECP] have been obtained from:
MM, AH, SG, J. Chem. Phys. 158, 014103 (2023), 10.1063/5.0133026

----- Orbital basis set information -----
Your calculation utilizes the basis: vDZP
   Marcel Mueller, Andreas Hansen, Stefan Grimme 
   J. Chem. Phys. 158, 014103 (2023). DOI: 10.1063/5.0133026

----- AuxJ basis set information -----
Your calculation utilizes the auxiliary basis: def2/J
   H-Rn: F. Weigend, Phys. Chem. Chem. Phys. 8, 1057 (2006).
   Fr-Lr: K. Eichkorn, F. Weigend, O. Treutler, R. Ahlrichs; Theor. Chem. Acc. 97, 119 (1997).

================================================================================
                                        WARNINGS
                       Please study these warnings very carefully!
================================================================================

WARNING: Frozen-Core approximation turned on, but there are no core electrons.
  ===> : Turning off frozen-core approximation


================================================================================
                                       INPUT FILE
================================================================================
NAME = conf_024.inp
|  1> ! wb97x-3c mbis hirshfeld chelpg resp
|  2> %pal nprocs 4 end
|  3> %maxcore 4000
|  4> %method
|  5> 	   MBIS_LARGEPRINT TRUE
|  6> 	end
|  7> #conf_024
|  8> * xyzfile 0 1 conf_024.xyz
|  9> 
| 10>                          ****END OF INPUT****
================================================================================

                       ****************************
                       * Single Point Calculation *
                       ****************************

---------------------------------
CARTESIAN COORDINATES (ANGSTROEM)
---------------------------------
  C      4.121215    3.881016   -0.544879
  C      5.302172    3.036987   -1.004978
  C      4.882395    1.938090   -1.993629
  C      3.981662    0.936310   -1.339947
  C      4.509644   -0.037658   -0.500008
  C      3.673202   -0.930464    0.137955
  F      4.221324   -1.866269    0.934083
  C      2.288992   -0.919493   -0.029595
  C      1.391175   -1.863273    0.653133
  C      0.386406   -2.507983   -0.063851
  C     -0.509157   -3.316443    0.602820
  F     -1.474606   -3.927100   -0.105826
  C     -0.462472   -3.508070    1.981295
  C     -1.502950   -4.310555    2.715984
  O     -1.262021   -5.285167    3.359207
  O     -2.775933   -3.869234    2.591620
  C     -3.065136   -2.688497    1.945069
  C     -2.457991   -1.494514    2.315523
  C     -2.723177   -0.356829    1.579869
  F     -2.105931    0.781515    1.946180
  C     -3.603299   -0.352247    0.499621
  C     -3.822798    0.856605   -0.309464
  C     -2.739138    1.619142   -0.735737
  C     -2.950941    2.742254   -1.511350
  F     -1.899847    3.461499   -1.927764
  C     -4.234320    3.136548   -1.875007
  F     -4.431543    4.227021   -2.625208
  C     -5.308043    2.365623   -1.441650
  F     -6.554634    2.723796   -1.778120
  C     -5.112054    1.235230   -0.671958
  C     -4.255302   -1.548459    0.205797
  C     -3.989750   -2.706994    0.908106
  C      0.591694   -2.899754    2.658713
  F      0.673203   -3.040463    3.987048
  C      1.508080   -2.085702    2.021581
  C      1.795160    0.069525   -0.879247
  F      0.460591    0.162081   -1.057461
  C      2.604759    0.984414   -1.520102
  H      3.389335    3.269622   -0.022045
  H      4.458316    4.663121    0.130655
  H      3.632795    4.351986   -1.394856
  H      6.037382    3.678753   -1.493531
  H      5.781421    2.576979   -0.138764
  H      5.778763    1.434436   -2.360168
  H      4.373163    2.397249   -2.841650
  H      5.573359   -0.110343   -0.336572
  H      0.287769   -2.382747   -1.129903
  H     -1.786358   -1.438515    3.157776
  H     -1.727395    1.341255   -0.489936
  H     -5.971072    0.671640   -0.345133
  H     -4.948463   -1.575252   -0.620077
  H     -4.464731   -3.638296    0.647029
  H      2.283615   -1.613113    2.602434
  H      2.151470    1.730737   -2.153120

----------------------------
CARTESIAN COORDINATES (A.U.)
----------------------------
  NO LB      ZA    FRAG     MASS         X           Y           Z
   0 C     4.0000*   0    12.011    7.787969    7.334058   -1.029673
   1 C     4.0000*   0    12.011   10.019654    5.739073   -1.899134
   2 C     4.0000*   0    12.011    9.226390    3.662459   -3.767413
   3 C     4.0000*   0    12.011    7.524251    1.769370   -2.532132
   4 C     4.0000*   0    12.011    8.521992   -0.071163   -0.944878
   5 C     4.0000*   0    12.011    6.941346   -1.758323    0.260696
   6 F     7.0000*   0    18.998    7.977146   -3.526738    1.765160
   7 C     4.0000*   0    12.011    4.325567   -1.737590   -0.055927
   8 C     4.0000*   0    12.011    2.628940   -3.521076    1.234243
   9 C     4.0000*   0    12.011    0.730201   -4.739401   -0.120661
  10 C     4.0000*   0    12.011   -0.962167   -6.267169    1.139165
  11 F     7.0000*   0    18.998   -2.786601   -7.421143   -0.199982
  12 C     4.0000*   0    12.011   -0.873946   -6.629291    3.744105
  13 C     4.0000*   0    12.011   -2.840163   -8.145769    5.132466
  14 O     6.0000*   0    15.999   -2.384873   -9.987518    6.347980
  15 O     6.0000*   0    15.999   -5.245754   -7.311793    4.897451
  16 C     4.0000*   0    12.011   -5.792269   -5.080524    3.675648
  17 C     4.0000*   0    12.011   -4.644931   -2.824222    4.375703
  18 C     4.0000*   0    12.011   -5.146058   -0.674309    2.985520
  19 F     7.0000*   0    18.998   -3.979632    1.476850    3.677748
  20 C     4.0000*   0    12.011   -6.809249   -0.665651    0.944147
  21 C     4.0000*   0    12.011   -7.224041    1.618749   -0.584802
  22 C     4.0000*   0    12.011   -5.176221    3.059735   -1.390342
  23 C     4.0000*   0    12.011   -5.576470    5.182110   -2.856038
  24 F     7.0000*   0    18.998   -3.590190    6.541286   -3.642946
  25 C     4.0000*   0    12.011   -8.001705    5.927216   -3.543249
  26 F     7.0000*   0    18.998   -8.374402    7.987912   -4.960924
  27 C     4.0000*   0    12.011  -10.030748    4.470380   -2.724325
  28 F     7.0000*   0    18.998  -12.386463    5.147228   -3.360159
  29 C     4.0000*   0    12.011   -9.660382    2.334247   -1.269816
  30 C     4.0000*   0    12.011   -8.041356   -2.926163    0.388901
  31 C     4.0000*   0    12.011   -7.539536   -5.115477    1.716071
  32 C     4.0000*   0    12.011    1.118140   -5.479741    5.024240
  33 F     7.0000*   0    18.998    1.272168   -5.745642    7.534429
  34 C     4.0000*   0    12.011    2.849858   -3.941406    3.820234
  35 C     4.0000*   0    12.011    3.392361    0.131382   -1.661537
  36 F     7.0000*   0    18.998    0.870391    0.306288   -1.998312
  37 C     4.0000*   0    12.011    4.922282    1.860273   -2.872577
  38 H     1.0000    0     1.008    6.404915    6.178690   -0.041658
  39 H     1.0000    0     1.008    8.424997    8.812022    0.246902
  40 H     1.0000    0     1.008    6.864988    8.224061   -2.635896
  41 H     1.0000    0     1.008   11.408998    6.951835   -2.822365
  42 H     1.0000    0     1.008   10.925302    4.869785   -0.262226
  43 H     1.0000    0     1.008   10.920279    2.710690   -4.460072
  44 H     1.0000    0     1.008    8.264081    4.530144   -5.369941
  45 H     1.0000    0     1.008   10.532123   -0.208519   -0.636029
  46 H     1.0000    0     1.008    0.543805   -4.502739   -2.135207
  47 H     1.0000    0     1.008   -3.375727   -2.718399    5.967332
  48 H     1.0000    0     1.008   -3.264303    2.534605   -0.925845
  49 H     1.0000    0     1.008  -11.283690    1.269215   -0.652206
  50 H     1.0000    0     1.008   -9.351240   -2.976795   -1.171775
  51 H     1.0000    0     1.008   -8.437119   -6.875384    1.222708
  52 H     1.0000    0     1.008    4.315407   -3.048342    4.917887
  53 H     1.0000    0     1.008    4.065689    3.270620   -4.068807
* core charge reduced due to ECP

--------------------------------
INTERNAL COORDINATES (ANGSTROEM)
--------------------------------
 C      0   0   0     0.000000000000     0.00000000     0.00000000
 C      1   0   0     1.522739769467     0.00000000     0.00000000
 C      2   1   0     1.536625505778   112.26713746     0.00000000
 C      3   2   1     1.497392516315   111.21661947   295.00994313
 C      4   3   2     1.390278583416   120.26372876   282.46901488
 C      5   4   3     1.379758894960   120.16099007   177.73475785
 F      6   5   4     1.345357853649   118.47141884   179.43725002
 C      6   5   4     1.394357471449   122.76264376     0.77007397
 C      8   6   5     1.470684736588   123.03839342   180.35414581
 C      9   8   6     1.392579806889   119.90425020   226.23238278
 C     10   9   8     1.378437733762   119.42507704   184.61453129
 F     11  10   9     1.344311378048   118.55906884   179.79850118
 C     11  10   9     1.392512832912   122.52691061     0.73917010
 C     13  11  10     1.505438447361   122.22785528   175.41408631
 O     14  13  11     1.192329361307   124.01000363   120.41459474
 O     14  13  11     1.353040576489   115.56457447   301.39581957
 C     16  14  13     1.376882359703   121.36446423   353.76061459
 C     17  16  14     1.389768780689   121.31929809   305.71779837
 C     18  17  16     1.380520267186   118.81880041   176.05660059
 F     19  18  17     1.345735314218   117.64162891   181.04900579
 C     19  18  17     1.393403574073   122.49063176     1.66451923
 C     21  19  18     1.471095651542   121.55584284   182.92361375
 C     22  21  19     1.391937556406   120.16128844    45.60253847
 C     23  22  21     1.381237483083   119.86991260   179.06698441
 F     24  23  22     1.339967457761   119.38481717   180.67798320
 C     24  23  22     1.390961920936   121.25080876     0.29725193
 F     26  24  23     1.338219632633   120.89932699   179.90780126
 C     26  24  23     1.391044057060   118.27049832   359.73261709
 F     28  26  24     1.339957695133   119.45444654   179.99456773
 C     28  26  24     1.381530606465   121.16624579   359.88242628
 C     21  19  18     1.393686381368   117.13683480     2.09093240
 C     31  21  19     1.380564261211   121.53603272   356.66222531
 C     13  11  10     1.392914281382   116.53235038   356.34967574
 F     33  13  11     1.338250895699   118.87524282   179.23628550
 C     33  13  11     1.381441405942   122.34938904     3.48185844
 C      8   6   5     1.394250405542   115.49436079   359.30847126
 F     36   8   6     1.349593142421   118.64409724   181.84447271
 C     36   8   6     1.379553615047   123.06954950     0.00000000
 H      1   2   3     1.087570099964   110.82783624    61.60757519
 H      1   2   3     1.087046980837   110.24655054   181.53194565
 H      1   2   3     1.087578524218   110.62060253   301.24595405
 H      2   1   3     1.091366323510   109.37646284   120.43716479
 H      2   1   3     1.091610541152   109.53001474   238.49402457
 H      3   2   1     1.091555258103   108.76495677   174.48741117
 H      3   2   1     1.090542977681   109.07303554    56.37059791
 H      5   4   3     1.078649973166   120.88101300   357.65638124
 H     10   9   8     1.077905220214   121.42848705     4.11458390
 H     18  17  16     1.078711475736   121.65018363   356.24338187
 H     23  22  21     1.077619292004   121.31967714     0.32890664
 H     30  28  26     1.078128321734   118.91942449   179.21216479
 H     31  21  19     1.078544235849   118.90903716   179.55264073
 H     32  31  21     1.077539839975   121.14755980   182.77451442
 H     35  33  13     1.078047038668   119.14589239   177.85862837
 H     38  36   8     1.078508968846   119.00721923   180.82036524

---------------------------
INTERNAL COORDINATES (A.U.)
---------------------------
 C      0   0   0     0.000000000000     0.00000000     0.00000000
 C      1   0   0     2.877561137523     0.00000000     0.00000000
 C      2   1   0     2.903801376318   112.26713746     0.00000000
 C      3   2   1     2.829661770819   111.21661947   295.00994313
 C      4   3   2     2.627245772512   120.26372876   282.46901488
 C      5   4   3     2.607366442317   120.16099007   177.73475785
 F      6   5   4     2.542357895517   118.47141884   179.43725002
 C      6   5   4     2.634953753826   122.76264376     0.77007397
 C      8   6   5     2.779191381490   123.03839342   180.35414581
 C      9   8   6     2.631594454649   119.90425020   226.23238278
 C     10   9   8     2.604869809474   119.42507704   184.61453129
 F     11  10   9     2.540380343226   118.55906884   179.79850118
 C     11  10   9     2.631467892174   122.52691061     0.73917010
 C     13  11  10     2.844866376988   122.22785528   175.41408631
 O     14  13  11     2.253175954303   124.01000363   120.41459474
 O     14  13  11     2.556876137648   115.56457447   301.39581957
 C     16  14  13     2.601930578467   121.36446423   353.76061459
 C     17  16  14     2.626282384976   121.31929809   305.71779837
 C     18  17  16     2.608805227310   118.81880041   176.05660059
 F     19  18  17     2.543071192618   117.64162891   181.04900579
 C     19  18  17     2.633151149025   122.49063176     1.66451923
 C     21  19  18     2.779967898218   121.55584284   182.92361375
 C     22  21  19     2.630380777128   120.16128844    45.60253847
 C     23  22  21     2.610160568934   119.86991260   179.06698441
 F     24  23  22     2.532171523535   119.38481717   180.67798320
 C     24  23  22     2.628537093282   121.25080876     0.29725193
 F     26  24  23     2.528868612712   120.89932699   179.90780126
 C     26  24  23     2.628692308062   118.27049832   359.73261709
 F     28  26  24     2.532153074842   119.45444654   179.99456773
 C     28  26  24     2.610714491849   121.16624579   359.88242628
 C     21  19  18     2.633685577362   117.13683480     2.09093240
 C     31  21  19     2.608888363969   121.53603272   356.66222531
 C     13  11  10     2.632226519841   116.53235038   356.34967574
 F     33  13  11     2.528927691346   118.87524282   179.23628550
 C     33  13  11     2.610545927289   122.34938904     3.48185844
 C      8   6   5     2.634751428582   115.49436079   359.30847126
 F     36   8   6     2.550361431394   118.64409724   181.84447271
 C     36   8   6     2.606978519500   123.06954950     0.00000000
 H      1   2   3     2.055209640374   110.82783624    61.60757519
 H      1   2   3     2.054221088487   110.24655054   181.53194565
 H      1   2   3     2.055225559906   110.62060253   301.24595405
 H      2   1   3     2.062383463218   109.37646284   120.43716479
 H      2   1   3     2.062844967678   109.53001474   238.49402457
 H      3   2   1     2.062740497857   108.76495677   174.48741117
 H      3   2   1     2.060827565087   109.07303554    56.37059791
 H      5   4   3     2.038353043645   120.88101300   357.65638124
 H     10   9   8     2.036945664528   121.42848705     4.11458390
 H     18  17  16     2.038469266659   121.65018363   356.24338187
 H     23  22  21     2.036405338518   121.31967714     0.32890664
 H     30  28  26     2.037367265301   118.91942449   179.21216479
 H     31  21  19     2.038153229073   118.90903716   179.55264073
 H     32  31  21     2.036255195942   121.14755980   182.77451442
 H     35  33  13     2.037213662568   119.14589239   177.85862837
 H     38  36   8     2.038086584098   119.00721923   180.82036524

---------------------
BASIS SET INFORMATION
---------------------
There are 4 groups of distinct atoms

 Group   1 Type C   : 6s6p2d contracted to 2s2p1d pattern {42/42/2}
 Group   2 Type F   : 6s6p2d contracted to 2s2p1d pattern {42/42/2}
 Group   3 Type O   : 6s6p2d contracted to 2s2p1d pattern {42/42/2}
 Group   4 Type H   : 8s2p contracted to 2s1p pattern {53/2}

Atom   0C    basis set group =>   1
Atom   1C    basis set group =>   1
Atom   2C    basis set group =>   1
Atom   3C    basis set group =>   1
Atom   4C    basis set group =>   1
Atom   5C    basis set group =>   1
Atom   6F    basis set group =>   2
Atom   7C    basis set group =>   1
Atom   8C    basis set group =>   1
Atom   9C    basis set group =>   1
Atom  10C    basis set group =>   1
Atom  11F    basis set group =>   2
Atom  12C    basis set group =>   1
Atom  13C    basis set group =>   1
Atom  14O    basis set group =>   3
Atom  15O    basis set group =>   3
Atom  16C    basis set group =>   1
Atom  17C    basis set group =>   1
Atom  18C    basis set group =>   1
Atom  19F    basis set group =>   2
Atom  20C    basis set group =>   1
Atom  21C    basis set group =>   1
Atom  22C    basis set group =>   1
Atom  23C    basis set group =>   1
Atom  24F    basis set group =>   2
Atom  25C    basis set group =>   1
Atom  26F    basis set group =>   2
Atom  27C    basis set group =>   1
Atom  28F    basis set group =>   2
Atom  29C    basis set group =>   1
Atom  30C    basis set group =>   1
Atom  31C    basis set group =>   1
Atom  32C    basis set group =>   1
Atom  33F    basis set group =>   2
Atom  34C    basis set group =>   1
Atom  35C    basis set group =>   1
Atom  36F    basis set group =>   2
Atom  37C    basis set group =>   1
Atom  38H    basis set group =>   4
Atom  39H    basis set group =>   4
Atom  40H    basis set group =>   4
Atom  41H    basis set group =>   4
Atom  42H    basis set group =>   4
Atom  43H    basis set group =>   4
Atom  44H    basis set group =>   4
Atom  45H    basis set group =>   4
Atom  46H    basis set group =>   4
Atom  47H    basis set group =>   4
Atom  48H    basis set group =>   4
Atom  49H    basis set group =>   4
Atom  50H    basis set group =>   4
Atom  51H    basis set group =>   4
Atom  52H    basis set group =>   4
Atom  53H    basis set group =>   4
---------------------------------
AUXILIARY/J BASIS SET INFORMATION
---------------------------------
There are 4 groups of distinct atoms

 Group   1 Type C   : 12s5p4d2f1g contracted to 6s4p3d1f1g pattern {711111/2111/211/2/1}
 Group   2 Type F   : 12s5p4d2f1g contracted to 6s4p3d1f1g pattern {711111/2111/211/2/1}
 Group   3 Type O   : 12s5p4d2f1g contracted to 6s4p3d1f1g pattern {711111/2111/211/2/1}
 Group   4 Type H   : 5s2p1d contracted to 3s1p1d pattern {311/2/1}

Atom   0C    basis set group =>   1
Atom   1C    basis set group =>   1
Atom   2C    basis set group =>   1
Atom   3C    basis set group =>   1
Atom   4C    basis set group =>   1
Atom   5C    basis set group =>   1
Atom   6F    basis set group =>   2
Atom   7C    basis set group =>   1
Atom   8C    basis set group =>   1
Atom   9C    basis set group =>   1
Atom  10C    basis set group =>   1
Atom  11F    basis set group =>   2
Atom  12C    basis set group =>   1
Atom  13C    basis set group =>   1
Atom  14O    basis set group =>   3
Atom  15O    basis set group =>   3
Atom  16C    basis set group =>   1
Atom  17C    basis set group =>   1
Atom  18C    basis set group =>   1
Atom  19F    basis set group =>   2
Atom  20C    basis set group =>   1
Atom  21C    basis set group =>   1
Atom  22C    basis set group =>   1
Atom  23C    basis set group =>   1
Atom  24F    basis set group =>   2
Atom  25C    basis set group =>   1
Atom  26F    basis set group =>   2
Atom  27C    basis set group =>   1
Atom  28F    basis set group =>   2
Atom  29C    basis set group =>   1
Atom  30C    basis set group =>   1
Atom  31C    basis set group =>   1
Atom  32C    basis set group =>   1
Atom  33F    basis set group =>   2
Atom  34C    basis set group =>   1
Atom  35C    basis set group =>   1
Atom  36F    basis set group =>   2
Atom  37C    basis set group =>   1
Atom  38H    basis set group =>   4
Atom  39H    basis set group =>   4
Atom  40H    basis set group =>   4
Atom  41H    basis set group =>   4
Atom  42H    basis set group =>   4
Atom  43H    basis set group =>   4
Atom  44H    basis set group =>   4
Atom  45H    basis set group =>   4
Atom  46H    basis set group =>   4
Atom  47H    basis set group =>   4
Atom  48H    basis set group =>   4
Atom  49H    basis set group =>   4
Atom  50H    basis set group =>   4
Atom  51H    basis set group =>   4
Atom  52H    basis set group =>   4
Atom  53H    basis set group =>   4
-------------------------
ECP PARAMETER INFORMATION
-------------------------

 Group 1, Type C  ECP vDZP-ECP (replacing 2 core electrons, lmax=3)
 Group 2, Type F  ECP vDZP-ECP (replacing 2 core electrons, lmax=3)
 Group 3, Type O  ECP vDZP-ECP (replacing 2 core electrons, lmax=3)

Atom   0C    ECP group =>   1
Atom   1C    ECP group =>   1
Atom   2C    ECP group =>   1
Atom   3C    ECP group =>   1
Atom   4C    ECP group =>   1
Atom   5C    ECP group =>   1
Atom   6F    ECP group =>   2
Atom   7C    ECP group =>   1
Atom   8C    ECP group =>   1
Atom   9C    ECP group =>   1
Atom  10C    ECP group =>   1
Atom  11F    ECP group =>   2
Atom  12C    ECP group =>   1
Atom  13C    ECP group =>   1
Atom  14O    ECP group =>   3
Atom  15O    ECP group =>   3
Atom  16C    ECP group =>   1
Atom  17C    ECP group =>   1
Atom  18C    ECP group =>   1
Atom  19F    ECP group =>   2
Atom  20C    ECP group =>   1
Atom  21C    ECP group =>   1
Atom  22C    ECP group =>   1
Atom  23C    ECP group =>   1
Atom  24F    ECP group =>   2
Atom  25C    ECP group =>   1
Atom  26F    ECP group =>   2
Atom  27C    ECP group =>   1
Atom  28F    ECP group =>   2
Atom  29C    ECP group =>   1
Atom  30C    ECP group =>   1
Atom  31C    ECP group =>   1
Atom  32C    ECP group =>   1
Atom  33F    ECP group =>   2
Atom  34C    ECP group =>   1
Atom  35C    ECP group =>   1
Atom  36F    ECP group =>   2
Atom  37C    ECP group =>   1



           ************************************************************
           *        Program running with 4 parallel MPI-processes     *
           *              working on a common directory               *
           ************************************************************
------------------------------------------------------------------------------
                             ORCA STARTUP CALCULATIONS
                           -- RI-GTO INTEGRALS CHOSEN --
------------------------------------------------------------------------------
------------------------------------------------------------------------------
                   ___                                                        
                  /   \      - P O W E R E D   B Y -                         
                 /     \                                                     
                 |  |  |   _    _      __       _____    __    __             
                 |  |  |  | |  | |    /  \     |  _  \  |  |  /  |          
                  \  \/   | |  | |   /    \    | | | |  |  | /  /          
                 / \  \   | |__| |  /  /\  \   | |_| |  |  |/  /          
                |  |  |   |  __  | /  /__\  \  |    /   |      \           
                |  |  |   | |  | | |   __   |  |    \   |  |\   \          
                \     /   | |  | | |  |  |  |  | |\  \  |  | \   \       
                 \___/    |_|  |_| |__|  |__|  |_| \__\ |__|  \__/        
                                                                              
                      - O R C A' S   B I G   F R I E N D -                    
                                      &                                       
                       - I N T E G R A L  F E E D E R -                       
                                                                              
 v1 FN, 2020, v2 2021, v3 2022-2024                                           
------------------------------------------------------------------------------


----------------------
SHARK INTEGRAL PACKAGE
----------------------

Number of atoms                             ...     54
Number of basis functions                   ...    574
Number of shells                            ...    238
Maximum angular momentum                    ...      2
Integral batch strategy                     ... SHARK/LIBINT Hybrid
RI-J (if used) integral strategy            ... SPLIT-RIJ (Revised 2003 algorithm where possible)
Printlevel                                  ...      1
Contraction scheme used                     ... SEGMENTED contraction
Prescreening option                         ... SCHWARTZ
   Thresh                                   ... 1.000e-10
   Tcut                                     ... 1.000e-11
   Tpresel                                  ... 1.000e-11 
Coulomb Range Separation                    ... NOT USED
Exchange Range Separation                   ... Long Range
   Mu parameter                             ... 3.000e-01
   Scaling (regular/separated)              ... 1.670e-01 8.330e-01
Robust (split-)RI terms used:
  metric    (central integrals)             ... YES
  density   (r.h.s.  integrals)             ... YES
  potential (l.h.s.  integrals)             ... YES
Multipole approximations                    ... NOT USED
Finite Nucleus Model                        ... NOT USED
CABS basis                                  ... NOT available
Auxiliary Coulomb fitting basis             ... AVAILABLE
   # of basis functions in Aux-J            ...   2038
   # of shells in Aux-J                     ...    650
   Maximum angular momentum in Aux-J        ...      4
Auxiliary J/K fitting basis                 ... NOT available
Auxiliary Correlation fitting basis         ... NOT available
Auxiliary 'external' fitting basis          ... NOT available

done (  0.0 sec) Dimension = 238
   => SHARK Basis and OBASIS are compatible. Storing Pre-screening
Shell pair information
Shell pair cut-off parameter TPreSel        ...   1.0e-11
Total number of shell pairs                 ...     28441
Shell pairs after pre-screening             ...     23971
Total number of primitive shell pairs       ...    240572
Primitive shell pairs kept                  ...    129280
          la=0 lb=0:   5179 shell pairs
          la=1 lb=0:   8516 shell pairs
          la=1 lb=1:   3576 shell pairs
          la=2 lb=0:   3406 shell pairs
          la=2 lb=1:   2740 shell pairs
          la=2 lb=2:    554 shell pairs

Checking whether 4 symmetric matrices of dimension 574 fit in memory
:Max Core in MB      =   4000.00
 MB in use           =     46.12
 MB left             =   3953.88
 MB needed           =      5.04
 Data fit in memory  = YES
done (  0.3 sec)
Calculating Nuclear repulsion               ... done (  0.0 sec) ENN=   2170.360561422041 Eh

Diagonalization of the overlap matrix:
Smallest eigenvalue                        ... 2.262e-04
Time for diagonalization                   ...    0.053 sec
Threshold for overlap eigenvalues          ... 1.000e-07
Number of eigenvalues below threshold      ... 0
Time for construction of square roots      ...    0.031 sec
Total time needed                          ...    0.092 sec

-------------------
DFT GRID GENERATION
-------------------

General Integration Accuracy     IntAcc      ... 4.388
Radial Grid Type                 RadialGrid  ... OptM3 with GC (2021)
Angular Grid (max. ang.)         AngularGrid ... 4 (Lebedev-302)
Angular grid pruning method      GridPruning ... 4 (adaptive)
Weight generation scheme         WeightScheme... mBecke (2022)
Basis function cutoff            BFCut       ... 1.0000e-10
Integration weight cutoff        WCut        ... 1.0000e-14
Partially contracted basis set               ... off
Rotationally invariant grid construction     ... off
Angular grids for H and He will be reduced by one unit

Total number of grid points                  ...   277967
Total number of batches                      ...     4373
Average number of points per batch           ...       63
Average number of grid points per atom       ...     5148

--------------------
COSX GRID GENERATION
--------------------

GRIDX 1
-------
General Integration Accuracy     IntAcc      ... 3.816
Radial Grid Type                 RadialGrid  ... OptM3 with GC (2021)
Angular Grid (max. ang.)         AngularGrid ... 1 (Lebedev-50)
Angular grid pruning method      GridPruning ... 4 (adaptive)
Weight generation scheme         WeightScheme... mBecke (2022)
Basis function cutoff            BFCut       ... 1.0000e-10
Integration weight cutoff        WCut        ... 1.0000e-14
Partially contracted basis set               ... on
Rotationally invariant grid construction     ... off
Angular grids for H and He will be reduced by one unit

Total number of grid points                  ...    35102
Total number of batches                      ...      303
Average number of points per batch           ...      115
Average number of grid points per atom       ...      650
UseSFitting                                  ... on

GRIDX 2
-------
General Integration Accuracy     IntAcc      ... 4.020
Radial Grid Type                 RadialGrid  ... OptM3 with GC (2021)
Angular Grid (max. ang.)         AngularGrid ... 2 (Lebedev-110)
Angular grid pruning method      GridPruning ... 4 (adaptive)
Weight generation scheme         WeightScheme... mBecke (2022)
Basis function cutoff            BFCut       ... 1.0000e-10
Integration weight cutoff        WCut        ... 1.0000e-14
Partially contracted basis set               ... on
Rotationally invariant grid construction     ... off
Angular grids for H and He will be reduced by one unit

Total number of grid points                  ...    78260
Total number of batches                      ...      638
Average number of points per batch           ...      122
Average number of grid points per atom       ...     1449
UseSFitting                                  ... on

GRIDX 3
-------
General Integration Accuracy     IntAcc      ... 4.338
Radial Grid Type                 RadialGrid  ... OptM3 with GC (2021)
Angular Grid (max. ang.)         AngularGrid ... 3 (Lebedev-194)
Angular grid pruning method      GridPruning ... 4 (adaptive)
Weight generation scheme         WeightScheme... mBecke (2022)
Basis function cutoff            BFCut       ... 1.0000e-10
Integration weight cutoff        WCut        ... 1.0000e-14
Partially contracted basis set               ... on
Rotationally invariant grid construction     ... off
Angular grids for H and He will be reduced by one unit

Total number of grid points                  ...   171491
Total number of batches                      ...     1369
Average number of points per batch           ...      125
Average number of grid points per atom       ...     3176
UseSFitting                                  ... on
Grids setup in   7.7 sec
Initializing property integral containers    ... done (  0.0 sec)

SHARK setup successfully completed in  11.8 seconds

Maximum memory used throughout the entire STARTUP-calculation: 113.4 MB


           ************************************************************
           *        Program running with 4 parallel MPI-processes     *
           *              working on a common directory               *
           ************************************************************
-------------------------------------------------------------------------------
                                 ORCA GUESS
                   Start orbitals & Density for SCF / CASSCF
-------------------------------------------------------------------------------

------------
SCF SETTINGS
------------
Hamiltonian:
 Density Functional     Method          .... DFT(GTOs)
 Exchange Functional    Exchange        .... WB97X-V
 Correlation Functional Correlation     .... WB97X-V
 Gradients option       PostSCFGGA      .... off
 Hybrid DFT is turned on
   Fraction HF Exchange ScalHFX         ....  0.167000
   Scaling of DF-GGA-X  ScalDFX         ....  0.000000
   Scaling of DF-GGA-C  ScalDFC         ....  1.000000
   Scaling of DF-LDA-C  ScalLDAC        ....  1.000000
   Perturbative correction              ....  0.000000
 Long-range corrected/Screened/Range-Separated Hybrid DFT is turned on
   Amount of maximum screened exact exchange              ....  0.833000
   Range separation parameter mu (erf(mu*r12)/r12)        ....  0.300000
   NL short-range parameter             ....  6.000000
   NL long-range parameter              ....  0.010000
 RI-approximation to the Coulomb term is turned on
   Number of AuxJ basis functions       .... 2038
   RIJ-COSX (HFX calculated with COS-X)).... on


General Settings:
 Integral files         IntName         .... conf_024
 Hartree-Fock type      HFTyp           .... RHF
 Total Charge           Charge          ....    0
 Multiplicity           Mult            ....    1
 Number of Electrons    NEL             ....  196
 Basis Dimension        Dim             ....  574
 Nuclear Repulsion      ENuc            ....   2170.3605614220 Eh

Convergence Acceleration:
 AO-DIIS                CNVDIIS         .... on
   Start iteration      DIISMaxIt       ....    12
   Startup error        DIISStart       ....  0.200000
   # of expansion vecs  DIISMaxEq       ....     5
   Bias factor          DIISBfac        ....   1.050
   Max. coefficient     DIISMaxC        ....  10.000
 MO-DIIS                CNVKDIIS        .... off
 Trust-Rad. Augm. Hess. CNVTRAH         .... auto
   Auto Start mean grad. ratio tolernc. ....  1.125000
   Auto Start start iteration           ....    50
   Auto Start num. interpolation iter.  ....    10
   Max. Number of Micro iterations      ....    24
   Max. Number of Macro iterations      .... Maxiter - #DIIS iter
   Number of Davidson start vectors     ....     2
   Converg. threshold    (grad. norm)   ....   5.000e-05
   Grad. Scal. Fac. for Micro threshold ....   0.100
   Minimum threshold for Micro iter.    ....   1.000e-02
   NR start threshold (gradient norm)   ....   1.000e-04
   Initial trust radius                 ....   0.400
   Minimum AH scaling param. (alpha)    ....   1.000
   Maximum AH scaling param. (alpha)    .... 1000.000
   Quad. conv. algorithm                .... NR
   White noise on init. David. guess    .... on
   Maximum white noise                  ....   0.010
   Pseudo random numbers                .... off
   Inactive MOs                         .... canonical
   Orbital update algorithm             .... Taylor
   Preconditioner                       .... Diag
   Full preconditioner red. dimension   ....   250
 SOSCF                 CNVSOSCF           .... on
   Start iteration     SOSCFMaxIt         ....   150
   Startup grad/error  SOSCFStart         ....  0.003300
   Hessian update      SOSCFHessUp        .... L-BFGS
   Autom. constraints  SOSCFAutoConstrain .... off
 Level Shifting         CNVShift        .... on
   Level shift para.    LevelShift      ....    0.2500
   Turn off err/grad.   ShiftErr        ....    0.0010
 Zerner damping         CNVZerner       .... off
 Static damping         CNVDamp         .... on
   Fraction old density DampFac         ....    0.7000
   Max. Damping (<1)    DampMax         ....    0.9800
   Min. Damping (>=0)   DampMin         ....    0.0000
   Turn off err/grad.   DampErr         ....    0.1000

SCF Procedure:
 Maximum # iterations   MaxIter         ....   125
 SCF integral mode      SCFMode         .... Direct
   Integral package                     .... SHARK and LIBINT hybrid scheme
 Reset frequency        DirectResetFreq ....    20
 Integral Threshold     Thresh          ....  1.000e-10 Eh
 Primitive CutOff       TCut            ....  1.000e-11 Eh

Convergence Tolerance:
 Convergence Check Mode ConvCheckMode   .... Total+1el-Energy
 Convergence forced     ConvForced      .... 0
 Energy Change          TolE            ....  1.000e-06 Eh
 1-El. energy change                    ....  1.000e-03 Eh
 Orbital Gradient       TolG            ....  5.000e-05
 Orbital Rotation angle TolX            ....  5.000e-05
 DIIS Error             TolErr          ....  1.000e-06

------------------------------
INITIAL GUESS: MODEL POTENTIAL
------------------------------
Loading Hartree-Fock densities                     ... done
Atomic calculation to generate a density for atom 0 (C  with ECP)
  Multiplicity assumed   :    1
  Atomic configuration   : 1s2 2s2 2p2 
  Number of open shells  : 1
  Command: /opt/apps/pkg/applications/orca/orca_6_1_0_linux_x86-64_shared_openmpi418/orca conf_024_atom6.inp "" > conf_024_atom6.out
Returned from the atomic calculation with res=0
Atomic calculation to generate a density for atom 6 (F  with ECP)
  Multiplicity assumed   :    2
  Atomic configuration   : 1s2 2s2 2p5 
  Number of open shells  : 1
  Command: /opt/apps/pkg/applications/orca/orca_6_1_0_linux_x86-64_shared_openmpi418/orca conf_024_atom9.inp "" > conf_024_atom9.out
Returned from the atomic calculation with res=0
Atomic calculation to generate a density for atom 14 (O  with ECP)
  Multiplicity assumed   :    3
  Atomic configuration   : 1s2 2s2 2p4 
  Number of open shells  : 1
  Command: /opt/apps/pkg/applications/orca/orca_6_1_0_linux_x86-64_shared_openmpi418/orca conf_024_atom8.inp "" > conf_024_atom8.out
Returned from the atomic calculation with res=0
Calculating cut-offs                               ... done
Initializing the effective Hamiltonian             ... done
Setting up the integral package (SHARK)            ... done
done (   2.3 sec)
done (   1.4 sec)
Mapping shells                                     ... done
Starting the XC term evaluation                    ... done (   0.6 sec)
  promolecular density results
     # of electrons  =    271.992541696
     EX              =   -168.151511881
     EC              =    -11.750660793
     EX+EC           =   -179.902172675
Transforming the Hamiltonian                       ... done (   0.0 sec)
done (   0.1 sec)
Back transforming the eigenvectors                 ... done (   0.4 sec)
done
                      ------------------
                      INITIAL GUESS DONE (   8.4 sec)
                      ------------------
             **** ENERGY FILE WAS UPDATED (conf_024.en.tmp) ****
Finished Guess after  10.5 sec
Maximum memory used throughout the entire GUESS-calculation: 68.6 MB


           ************************************************************
           *        Program running with 4 parallel MPI-processes     *
           *              working on a common directory               *
           ************************************************************

-------------------------------------------------------------------------------------------
                                      ORCA LEAN-SCF
                              memory conserving SCF solver
-------------------------------------------------------------------------------------------

----------------------------------------D-I-I-S--------------------------------------------
Iteration    Energy (Eh)           Delta-E    RMSDP     MaxDP     DIISErr   Damp  Time(sec)
-------------------------------------------------------------------------------------------
               ***  Starting incremental Fock matrix formation  ***
    1    -394.3574297504169408     0.00e+00  5.88e-03  9.66e-02  2.39e-01  0.700  86.3
    2    -394.9317417677434605    -5.74e-01  4.26e-03  6.83e-02  1.17e-01  0.700  35.7
                               ***Turning on AO-DIIS***
    3    -395.1974920995789944    -2.66e-01  2.47e-03  3.47e-02  5.56e-02  0.700  34.9
    4    -395.3553485932693548    -1.58e-01  5.45e-03  7.43e-02  3.22e-02  0.000  32.7
    5    -395.6996076840378009    -3.44e-01  4.57e-04  6.58e-03  6.55e-03  0.000  35.7
    6    -395.7014264590698076    -1.82e-03  2.35e-04  5.33e-03  3.96e-03  0.000  28.5
                              *** Initializing SOSCF ***
---------------------------------------S-O-S-C-F--------------------------------------
Iteration    Energy (Eh)           Delta-E    RMSDP     MaxDP     MaxGrad    Time(sec)
--------------------------------------------------------------------------------------
    7    -395.7019299685539409    -5.04e-04  1.24e-04  3.08e-03  2.29e-03    26.9
               *** Restarting incremental Fock matrix formation ***
    8    -395.7022091766762060    -2.79e-04  7.93e-05  1.89e-03  9.84e-04    84.3
    9    -395.7022575836199394    -4.84e-05  9.22e-05  2.44e-03  4.89e-04    50.1
   10    -395.7022704274791067    -1.28e-05  2.99e-05  1.23e-03  3.41e-04    50.3
   11    -395.7022756898531952    -5.26e-06  1.09e-05  2.63e-04  4.51e-05    43.0
   12    -395.7022757991121580    -1.09e-07  4.98e-06  8.40e-05  4.49e-05    34.1
                 **** Energy Check signals convergence ****

               *****************************************************
               *                     SUCCESS                       *
               *           SCF CONVERGED AFTER  12 CYCLES          *
               *****************************************************

 done (  154.296 sec)
Old exchange energy                            :    -40.324421831 Eh
New exchange energy                            :    -40.324380602 Eh
Exchange energy change after final integration :      0.000041229 Eh
Total energy after final integration           :   -395.702234933 Eh
             **** ENERGY FILE WAS UPDATED (conf_024.en.tmp) ****

----------------
TOTAL SCF ENERGY
----------------

Total Energy       :       -395.70223493302689 Eh          -10767.60523 eV

Components:
Nuclear Repulsion  :       2170.36056142204052 Eh           59058.51335 eV
Electronic Energy  :      -2566.06283758369864 Eh          -69826.11970 eV
One Electron Energy:      -4956.08350323580089 Eh         -134861.88837 eV
Two Electron Energy:       2390.02066565210225 Eh           65035.76867 eV

Virial components:
Potential Energy   :       -709.33772815928501 Eh          -19302.06088 eV
Kinetic Energy     :        313.63549322625812 Eh            8534.45565 eV
Virial Ratio       :          2.26166280117909

DFT components:
N(Alpha)           :       98.000088013388 electrons
N(Beta)            :       98.000088013388 electrons
N(Total)           :      196.000176026777 electrons
E(X)               :      -51.260873876419 Eh       
E(C)               :       -7.932746150655 Eh       
E(XC)              :      -59.193620027074 Eh       

---------------
SCF CONVERGENCE
---------------

  Last Energy change         ...    1.0926e-07  Tolerance :   1.0000e-06
  Last MAX-Density change    ...    8.3959e-05  Tolerance :   1.0000e-05
  Last RMS-Density change    ...    4.9755e-06  Tolerance :   1.0000e-06
  Last DIIS Error            ...    2.2867e-03  Tolerance :   1.0000e-06
  Last Orbital Gradient      ...    4.4925e-05  Tolerance :   5.0000e-05
  Last Orbital Rotation      ...    1.5955e-04  Tolerance :   5.0000e-05


----------------
ORBITAL ENERGIES
----------------

  NO   OCC          E(Eh)            E(eV) 
   0   2.0000      -1.392025       -37.8789 
   1   2.0000      -1.387822       -37.7646 
   2   2.0000      -1.385775       -37.7089 
   3   2.0000      -1.383833       -37.6560 
   4   2.0000      -1.381517       -37.5930 
   5   2.0000      -1.381004       -37.5790 
   6   2.0000      -1.377611       -37.4867 
   7   2.0000      -1.371676       -37.3252 
   8   2.0000      -1.275399       -34.7054 
   9   2.0000      -1.186846       -32.2957 
  10   2.0000      -1.063898       -28.9501 
  11   2.0000      -1.057771       -28.7834 
  12   2.0000      -1.044763       -28.4295 
  13   2.0000      -1.034943       -28.1622 
  14   2.0000      -0.987005       -26.8578 
  15   2.0000      -0.961111       -26.1532 
  16   2.0000      -0.954344       -25.9690 
  17   2.0000      -0.927449       -25.2372 
  18   2.0000      -0.926620       -25.2146 
  19   2.0000      -0.922476       -25.1019 
  20   2.0000      -0.919933       -25.0327 
  21   2.0000      -0.913595       -24.8602 
  22   2.0000      -0.903285       -24.5796 
  23   2.0000      -0.856623       -23.3099 
  24   2.0000      -0.830699       -22.6045 
  25   2.0000      -0.809820       -22.0363 
  26   2.0000      -0.801244       -21.8029 
  27   2.0000      -0.798845       -21.7377 
  28   2.0000      -0.785432       -21.3727 
  29   2.0000      -0.783053       -21.3080 
  30   2.0000      -0.772322       -21.0160 
  31   2.0000      -0.767877       -20.8950 
  32   2.0000      -0.743725       -20.2378 
  33   2.0000      -0.735169       -20.0050 
  34   2.0000      -0.723423       -19.6853 
  35   2.0000      -0.715029       -19.4569 
  36   2.0000      -0.703607       -19.1461 
  37   2.0000      -0.694880       -18.9086 
  38   2.0000      -0.692247       -18.8370 
  39   2.0000      -0.689730       -18.7685 
  40   2.0000      -0.682467       -18.5709 
  41   2.0000      -0.673735       -18.3333 
  42   2.0000      -0.668745       -18.1975 
  43   2.0000      -0.649096       -17.6628 
  44   2.0000      -0.647205       -17.6113 
  45   2.0000      -0.644764       -17.5449 
  46   2.0000      -0.643603       -17.5133 
  47   2.0000      -0.642658       -17.4876 
  48   2.0000      -0.639136       -17.3918 
  49   2.0000      -0.635811       -17.3013 
  50   2.0000      -0.631201       -17.1759 
  51   2.0000      -0.622849       -16.9486 
  52   2.0000      -0.618806       -16.8386 
  53   2.0000      -0.618105       -16.8195 
  54   2.0000      -0.614173       -16.7125 
  55   2.0000      -0.610707       -16.6182 
  56   2.0000      -0.606775       -16.5112 
  57   2.0000      -0.602328       -16.3902 
  58   2.0000      -0.598928       -16.2977 
  59   2.0000      -0.596539       -16.2326 
  60   2.0000      -0.593046       -16.1376 
  61   2.0000      -0.590850       -16.0778 
  62   2.0000      -0.588378       -16.0106 
  63   2.0000      -0.580227       -15.7888 
  64   2.0000      -0.579689       -15.7741 
  65   2.0000      -0.571961       -15.5638 
  66   2.0000      -0.565192       -15.3797 
  67   2.0000      -0.559149       -15.2152 
  68   2.0000      -0.553654       -15.0657 
  69   2.0000      -0.544877       -14.8269 
  70   2.0000      -0.542000       -14.7486 
  71   2.0000      -0.537370       -14.6226 
  72   2.0000      -0.536656       -14.6032 
  73   2.0000      -0.524186       -14.2638 
  74   2.0000      -0.523062       -14.2332 
  75   2.0000      -0.519586       -14.1387 
  76   2.0000      -0.516595       -14.0573 
  77   2.0000      -0.512986       -13.9591 
  78   2.0000      -0.507006       -13.7963 
  79   2.0000      -0.505466       -13.7544 
  80   2.0000      -0.502968       -13.6865 
  81   2.0000      -0.498041       -13.5524 
  82   2.0000      -0.493347       -13.4246 
  83   2.0000      -0.492564       -13.4033 
  84   2.0000      -0.485735       -13.2175 
  85   2.0000      -0.465497       -12.6668 
  86   2.0000      -0.462292       -12.5796 
  87   2.0000      -0.457000       -12.4356 
  88   2.0000      -0.456841       -12.4313 
  89   2.0000      -0.426365       -11.6020 
  90   2.0000      -0.407145       -11.0790 
  91   2.0000      -0.390548       -10.6274 
  92   2.0000      -0.379191       -10.3183 
  93   2.0000      -0.372792       -10.1442 
  94   2.0000      -0.372185       -10.1277 
  95   2.0000      -0.371792       -10.1170 
  96   2.0000      -0.353940        -9.6312 
  97   2.0000      -0.342193        -9.3115 
  98   0.0000      -0.006022        -0.1639 
  99   0.0000       0.010748         0.2925 
 100   0.0000       0.038558         1.0492 
 101   0.0000       0.041630         1.1328 
 102   0.0000       0.044242         1.2039 
 103   0.0000       0.045070         1.2264 
 104   0.0000       0.049189         1.3385 
 105   0.0000       0.068259         1.8574 
 106   0.0000       0.070748         1.9251 
 107   0.0000       0.077840         2.1181 
 108   0.0000       0.084318         2.2944 
*Only the first 10 virtual orbitals were printed.

                    ********************************
                    * MULLIKEN POPULATION ANALYSIS *
                    ********************************

-----------------------
MULLIKEN ATOMIC CHARGES
-----------------------
   0 C :   -0.059022
   1 C :   -0.066200
   2 C :   -0.045975
   3 C :   -0.041879
   4 C :    0.035741
   5 C :    0.200856
   6 F :   -0.226021
   7 C :   -0.124755
   8 C :   -0.092585
   9 C :    0.079129
  10 C :    0.253032
  11 F :   -0.218362
  12 C :   -0.248244
  13 C :    0.310575
  14 O :   -0.241852
  15 O :   -0.206531
  16 C :    0.019199
  17 C :    0.045951
  18 C :    0.197273
  19 F :   -0.228376
  20 C :   -0.110599
  21 C :   -0.079900
  22 C :    0.065892
  23 C :    0.171913
  24 F :   -0.218427
  25 C :    0.194043
  26 F :   -0.209379
  27 C :    0.174986
  28 F :   -0.216062
  29 C :    0.029833
  30 C :    0.052494
  31 C :    0.059814
  32 C :    0.219127
  33 F :   -0.209930
  34 C :    0.075355
  35 C :    0.197027
  36 F :   -0.242033
  37 C :    0.034859
  38 H :    0.042501
  39 H :    0.037277
  40 H :    0.028605
  41 H :    0.038382
  42 H :    0.037134
  43 H :    0.050983
  44 H :    0.040650
  45 H :    0.033700
  46 H :    0.051777
  47 H :    0.057986
  48 H :    0.043978
  49 H :    0.044455
  50 H :    0.040032
  51 H :    0.037461
  52 H :    0.050849
  53 H :    0.033260
Sum of atomic charges:   -0.0000000

--------------------------------
MULLIKEN REDUCED ORBITAL CHARGES
--------------------------------
  0 C s       :     0.936613  s :     0.936613
      pz      :     1.041330  p :     3.048745
      px      :     0.991963
      py      :     1.015452
      dz2     :     0.005763  d :     0.073664
      dxz     :     0.018620
      dyz     :     0.020172
      dx2y2   :     0.010055
      dxy     :     0.019054

  1 C s       :     0.998248  s :     0.998248
      pz      :     1.006193  p :     2.966386
      px      :     0.993678
      py      :     0.966515
      dz2     :     0.013664  d :     0.101566
      dxz     :     0.022990
      dyz     :     0.024698
      dx2y2   :     0.014149
      dxy     :     0.026066

  2 C s       :     0.964629  s :     0.964629
      pz      :     1.003898  p :     2.981562
      px      :     1.020364
      py      :     0.957300
      dz2     :     0.016363  d :     0.099783
      dxz     :     0.021282
      dyz     :     0.022064
      dx2y2   :     0.014318
      dxy     :     0.025756

  3 C s       :     1.043103  s :     1.043103
      pz      :     0.947576  p :     2.870301
      px      :     0.969705
      py      :     0.953020
      dz2     :     0.021813  d :     0.128475
      dxz     :     0.029016
      dyz     :     0.015308
      dx2y2   :     0.030282
      dxy     :     0.032056

  4 C s       :     0.961440  s :     0.961440
      pz      :     0.974362  p :     2.915959
      px      :     0.984462
      py      :     0.957136
      dz2     :     0.017747  d :     0.086859
      dxz     :     0.016242
      dyz     :     0.010955
      dx2y2   :     0.023370
      dxy     :     0.018547

  5 C s       :     1.058974  s :     1.058974
      pz      :     0.849132  p :     2.554518
      px      :     0.935381
      py      :     0.770005
      dz2     :     0.033891  d :     0.185652
      dxz     :     0.038952
      dyz     :     0.024673
      dx2y2   :     0.043977
      dxy     :     0.044159

  6 F s       :     1.886250  s :     1.886250
      pz      :     1.755830  p :     5.316150
      px      :     1.866896
      py      :     1.693424
      dz2     :     0.004716  d :     0.023620
      dxz     :     0.003698
      dyz     :     0.006288
      dx2y2   :     0.004157
      dxy     :     0.004760

  7 C s       :     0.988732  s :     0.988732
      pz      :     1.028488  p :     3.024768
      px      :     0.969761
      py      :     1.026519
      dz2     :     0.020022  d :     0.111255
      dxz     :     0.023654
      dyz     :     0.014071
      dx2y2   :     0.028994
      dxy     :     0.024514

  8 C s       :     1.012653  s :     1.012653
      pz      :     1.008618  p :     2.949636
      px      :     0.975303
      py      :     0.965715
      dz2     :     0.030317  d :     0.130296
      dxz     :     0.032634
      dyz     :     0.029643
      dx2y2   :     0.021052
      dxy     :     0.016650

  9 C s       :     0.969175  s :     0.969175
      pz      :     0.993303  p :     2.864455
      px      :     0.919627
      py      :     0.951525
      dz2     :     0.022859  d :     0.087241
      dxz     :     0.018352
      dyz     :     0.014006
      dx2y2   :     0.019920
      dxy     :     0.012103

 10 C s       :     1.048549  s :     1.048549
      pz      :     0.877359  p :     2.511376
      px      :     0.798167
      py      :     0.835850
      dz2     :     0.043235  d :     0.187043
      dxz     :     0.043943
      dyz     :     0.038548
      dx2y2   :     0.036254
      dxy     :     0.025063

 11 F s       :     1.884811  s :     1.884811
      pz      :     1.807655  p :     5.309695
      px      :     1.680544
      py      :     1.821496
      dz2     :     0.003435  d :     0.023856
      dxz     :     0.006133
      dyz     :     0.003855
      dx2y2   :     0.005223
      dxy     :     0.005210

 12 C s       :     1.016111  s :     1.016111
      pz      :     1.025764  p :     3.130765
      px      :     1.005221
      py      :     1.099779
      dz2     :     0.022239  d :     0.101368
      dxz     :     0.024475
      dyz     :     0.022941
      dx2y2   :     0.015763
      dxy     :     0.015951

 13 C s       :     1.071258  s :     1.071258
      pz      :     0.775697  p :     2.339232
      px      :     0.749045
      py      :     0.814490
      dz2     :     0.038468  d :     0.278935
      dxz     :     0.059131
      dyz     :     0.031443
      dx2y2   :     0.064320
      dxy     :     0.085574

 14 O s       :     1.765320  s :     1.765320
      pz      :     1.365236  p :     4.437523
      px      :     1.760440
      py      :     1.311847
      dz2     :     0.009474  d :     0.039009
      dxz     :     0.003594
      dyz     :     0.010408
      dx2y2   :     0.008797
      dxy     :     0.006735

 15 O s       :     1.679324  s :     1.679324
      pz      :     1.650344  p :     4.484352
      px      :     1.399866
      py      :     1.434142
      dz2     :     0.005930  d :     0.042856
      dxz     :     0.006585
      dyz     :     0.008127
      dx2y2   :     0.014196
      dxy     :     0.008018

 16 C s       :     1.041383  s :     1.041383
      pz      :     0.896601  p :     2.764666
      px      :     1.055369
      py      :     0.812696
      dz2     :     0.036928  d :     0.174752
      dxz     :     0.017675
      dyz     :     0.043300
      dx2y2   :     0.038815
      dxy     :     0.038035

 17 C s       :     0.971540  s :     0.971540
      pz      :     1.028633  p :     2.897073
      px      :     0.962120
      py      :     0.906320
      dz2     :     0.014106  d :     0.085436
      dxz     :     0.011960
      dyz     :     0.022041
      dx2y2   :     0.016133
      dxy     :     0.021196

 18 C s       :     1.050513  s :     1.050513
      pz      :     0.954913  p :     2.568954
      px      :     0.900358
      py      :     0.713683
      dz2     :     0.035532  d :     0.183260
      dxz     :     0.020166
      dyz     :     0.044613
      dx2y2   :     0.040822
      dxy     :     0.042126

 19 F s       :     1.886818  s :     1.886818
      pz      :     1.897940  p :     5.317947
      px      :     1.825785
      py      :     1.594221
      dz2     :     0.002982  d :     0.023611
      dxz     :     0.001726
      dyz     :     0.005611
      dx2y2   :     0.006082
      dxy     :     0.007210

 20 C s       :     0.991128  s :     0.991128
      pz      :     0.981959  p :     3.000688
      px      :     1.005363
      py      :     1.013366
      dz2     :     0.027548  d :     0.118783
      dxz     :     0.015571
      dyz     :     0.026934
      dx2y2   :     0.027347
      dxy     :     0.021383

 21 C s       :     0.997653  s :     0.997653
      pz      :     0.957893  p :     2.953893
      px      :     1.004137
      py      :     0.991862
      dz2     :     0.017446  d :     0.128354
      dxz     :     0.028885
      dyz     :     0.016567
      dx2y2   :     0.031501
      dxy     :     0.033956

 22 C s       :     0.975842  s :     0.975842
      pz      :     0.967836  p :     2.869747
      px      :     0.987705
      py      :     0.914205
      dz2     :     0.017316  d :     0.088519
      dxz     :     0.013420
      dyz     :     0.013037
      dx2y2   :     0.027539
      dxy     :     0.017206

 23 C s       :     1.057216  s :     1.057216
      pz      :     0.946073  p :     2.587797
      px      :     0.762653
      py      :     0.879071
      dz2     :     0.027419  d :     0.183074
      dxz     :     0.041168
      dyz     :     0.020272
      dx2y2   :     0.048633
      dxy     :     0.045581

 24 F s       :     1.887945  s :     1.887945
      pz      :     1.875307  p :     5.306663
      px      :     1.637097
      py      :     1.794259
      dz2     :     0.003212  d :     0.023819
      dxz     :     0.005324
      dyz     :     0.002527
      dx2y2   :     0.005438
      dxy     :     0.007318

 25 C s       :     1.045778  s :     1.045778
      pz      :     0.901466  p :     2.585019
      px      :     0.915942
      py      :     0.767611
      dz2     :     0.031653  d :     0.175160
      dxz     :     0.034552
      dyz     :     0.025668
      dx2y2   :     0.036616
      dxy     :     0.046671

 26 F s       :     1.888864  s :     1.888864
      pz      :     1.761680  p :     5.296090
      px      :     1.938085
      py      :     1.596325
      dz2     :     0.004863  d :     0.024425
      dxz     :     0.001963
      dyz     :     0.008031
      dx2y2   :     0.005553
      dxy     :     0.004015

 27 C s       :     1.057474  s :     1.057474
      pz      :     0.938856  p :     2.584602
      px      :     0.683804
      py      :     0.961941
      dz2     :     0.026206  d :     0.182939
      dxz     :     0.045561
      dyz     :     0.015989
      dx2y2   :     0.043036
      dxy     :     0.052146

 28 F s       :     1.888269  s :     1.888269
      pz      :     1.891587  p :     5.303888
      px      :     1.508851
      py      :     1.903450
      dz2     :     0.003068  d :     0.023905
      dxz     :     0.006658
      dyz     :     0.000868
      dx2y2   :     0.007044
      dxy     :     0.006267

 29 C s       :     0.969537  s :     0.969537
      pz      :     0.966698  p :     2.911739
      px      :     0.974308
      py      :     0.970733
      dz2     :     0.016323  d :     0.088891
      dxz     :     0.016426
      dyz     :     0.011532
      dx2y2   :     0.021679
      dxy     :     0.022931

 30 C s       :     0.981829  s :     0.981829
      pz      :     0.976860  p :     2.868264
      px      :     0.951785
      py      :     0.939619
      dz2     :     0.015042  d :     0.097413
      dxz     :     0.014247
      dyz     :     0.022983
      dx2y2   :     0.021778
      dxy     :     0.023363

 31 C s       :     0.982339  s :     0.982339
      pz      :     0.930882  p :     2.868644
      px      :     0.976439
      py      :     0.961323
      dz2     :     0.022822  d :     0.089204
      dxz     :     0.012039
      dyz     :     0.016979
      dx2y2   :     0.017842
      dxy     :     0.019523

 32 C s       :     1.058253  s :     1.058253
      pz      :     0.663914  p :     2.534291
      px      :     0.957077
      py      :     0.913301
      dz2     :     0.046965  d :     0.188329
      dxz     :     0.052026
      dyz     :     0.045921
      dx2y2   :     0.027826
      dxy     :     0.015591

 33 F s       :     1.885455  s :     1.885455
      pz      :     1.449905  p :     5.300426
      px      :     1.932054
      py      :     1.918468
      dz2     :     0.010973  d :     0.024048
      dxz     :     0.005904
      dyz     :     0.006675
      dx2y2   :     0.000187
      dxy     :     0.000309

 34 C s       :     0.970674  s :     0.970674
      pz      :     0.934585  p :     2.867070
      px      :     0.983306
      py      :     0.949179
      dz2     :     0.017510  d :     0.086901
      dxz     :     0.025904
      dyz     :     0.020549
      dx2y2   :     0.013263
      dxy     :     0.009676

 35 C s       :     1.057458  s :     1.057458
      pz      :     0.923234  p :     2.561936
      px      :     0.643751
      py      :     0.994951
      dz2     :     0.030368  d :     0.183579
      dxz     :     0.044591
      dyz     :     0.015043
      dx2y2   :     0.044924
      dxy     :     0.048654

 36 F s       :     1.885161  s :     1.885161
      pz      :     1.922368  p :     5.333617
      px      :     1.474898
      py      :     1.936352
      dz2     :     0.002779  d :     0.023255
      dxz     :     0.006434
      dyz     :     0.000321
      dx2y2   :     0.007938
      dxy     :     0.005784

 37 C s       :     0.962878  s :     0.962878
      pz      :     1.004806  p :     2.915039
      px      :     0.931769
      py      :     0.978463
      dz2     :     0.010306  d :     0.087225
      dxz     :     0.023291
      dyz     :     0.009760
      dx2y2   :     0.017368
      dxy     :     0.026500

 38 H s       :     0.911389  s :     0.911389
      pz      :     0.013749  p :     0.046110
      px      :     0.017089
      py      :     0.015272

 39 H s       :     0.917585  s :     0.917585
      pz      :     0.015673  p :     0.045138
      px      :     0.011955
      py      :     0.017510

 40 H s       :     0.926681  s :     0.926681
      pz      :     0.017825  p :     0.044714
      px      :     0.013773
      py      :     0.013116

 41 H s       :     0.918007  s :     0.918007
      pz      :     0.012588  p :     0.043611
      px      :     0.015983
      py      :     0.015041

 42 H s       :     0.919389  s :     0.919389
      pz      :     0.018831  p :     0.043477
      px      :     0.012285
      py      :     0.012361

 43 H s       :     0.904488  s :     0.904488
      pz      :     0.011512  p :     0.044528
      px      :     0.019606
      py      :     0.013410

 44 H s       :     0.915398  s :     0.915398
      pz      :     0.018284  p :     0.043951
      px      :     0.012693
      py      :     0.012975

 45 H s       :     0.915147  s :     0.915147
      pz      :     0.013057  p :     0.051153
      px      :     0.026443
      py      :     0.011653

 46 H s       :     0.896412  s :     0.896412
      pz      :     0.027375  p :     0.051811
      px      :     0.011664
      py      :     0.012772

 47 H s       :     0.890127  s :     0.890127
      pz      :     0.022763  p :     0.051888
      px      :     0.019373
      py      :     0.009752

 48 H s       :     0.902925  s :     0.902925
      pz      :     0.014059  p :     0.053097
      px      :     0.026689
      py      :     0.012349

 49 H s       :     0.903285  s :     0.903285
      pz      :     0.015189  p :     0.052260
      px      :     0.020926
      py      :     0.016146

 50 H s       :     0.908843  s :     0.908843
      pz      :     0.021763  p :     0.051125
      px      :     0.019085
      py      :     0.010277

 51 H s       :     0.912031  s :     0.912031
      pz      :     0.012602  p :     0.050507
      px      :     0.014957
      py      :     0.022948

 52 H s       :     0.897227  s :     0.897227
      pz      :     0.014819  p :     0.051924
      px      :     0.021224
      py      :     0.015881

 53 H s       :     0.915800  s :     0.915800
      pz      :     0.018934  p :     0.050941
      px      :     0.012524
      py      :     0.019483



                     *******************************
                     * LOEWDIN POPULATION ANALYSIS *
                     *******************************

----------------------
LOEWDIN ATOMIC CHARGES
----------------------
   0 C :   -0.109239
   1 C :   -0.079915
   2 C :   -0.071982
   3 C :   -0.017104
   4 C :   -0.029243
   5 C :    0.047287
   6 F :   -0.065842
   7 C :   -0.038237
   8 C :   -0.018610
   9 C :   -0.013216
  10 C :    0.044777
  11 F :   -0.055518
  12 C :   -0.038967
  13 C :   -0.018681
  14 O :   -0.080702
  15 O :    0.037302
  16 C :   -0.027605
  17 C :   -0.015821
  18 C :    0.043605
  19 F :   -0.066486
  20 C :   -0.037251
  21 C :   -0.031926
  22 C :   -0.009604
  23 C :    0.038822
  24 F :   -0.062603
  25 C :    0.038557
  26 F :   -0.056021
  27 C :    0.037567
  28 F :   -0.061543
  29 C :   -0.020941
  30 C :   -0.013621
  31 C :   -0.022180
  32 C :    0.046309
  33 F :   -0.053532
  34 C :   -0.012648
  35 C :    0.048313
  36 F :   -0.069870
  37 C :   -0.029391
  38 H :    0.042503
  39 H :    0.046994
  40 H :    0.042116
  41 H :    0.047623
  42 H :    0.044283
  43 H :    0.056303
  44 H :    0.053939
  45 H :    0.054982
  46 H :    0.059691
  47 H :    0.057869
  48 H :    0.055460
  49 H :    0.057106
  50 H :    0.055788
  51 H :    0.056583
  52 H :    0.060121
  53 H :    0.054401

-------------------------------
LOEWDIN REDUCED ORBITAL CHARGES
-------------------------------
  0 C s       :     0.765635  s :     0.765635
      pz      :     1.058939  p :     3.098318
      px      :     1.005483
      py      :     1.033897
      dz2     :     0.018237  d :     0.245285
      dxz     :     0.062542
      dyz     :     0.068438
      dx2y2   :     0.034559
      dxy     :     0.061509

[...]
  28 F      -0.111801     -0.080417      0.081577      0.086572     -0.081770      0.065599      0.036295      0.073075      0.018348     -0.020359
  29 C      -0.362139     -0.264957      0.247139      0.218875     -0.170595      0.047222      0.042328      0.001570      0.268128     -0.185750
  30 C       0.066172     -0.035767     -0.017941     -0.124570     -0.004993     -0.312194     -0.050199      0.011407     -0.312549      0.150848
  31 C      -0.297188     -0.168086     -0.158242      0.027062     -0.209663      0.122478     -0.109624     -0.262044      0.312855     -0.167223
  32 C       0.120987     -0.189229     -0.075744     -0.070084      0.302922     -0.003727      0.146335     -0.004122      0.187978     -0.010782
  33 F      -0.035526     -0.023461      0.203223     -0.014722     -0.083439     -0.011377      0.005913      0.019667     -0.087683     -0.063948
  34 C       0.108184      0.220861      0.457072      0.193679     -0.199577      0.161338     -0.147905      0.103558     -0.149010     -0.096367
  35 C      -0.051619      0.005478     -0.030008     -0.075426      0.093279     -0.293365      0.134930     -0.244030     -0.052893      0.044055
  36 F      -0.258353     -0.043767      0.086007      0.004513     -0.030902      0.057641      0.016867      0.065290      0.029655     -0.019591
  37 C      -0.489235      0.093424     -0.040957      0.108736     -0.146922      0.246705     -0.129961      0.155281     -0.126037      0.005508
  38 H      -0.024550     -0.062424      0.016131     -0.020197      0.008933     -0.011360     -0.004126     -0.002560      0.006283     -0.026724
  39 H       0.043356      0.027840      0.031687      0.016207      0.010991      0.014638     -0.007662      0.019411      0.010090      0.006700
  40 H       0.000483      0.002687     -0.051377      0.009975     -0.018428     -0.001318     -0.007019      0.002233     -0.020224      0.001581
  41 H       0.010789      0.044768     -0.044953      0.008540     -0.016516      0.004272      0.007074      0.000454     -0.010624      0.017796
  42 H      -0.011973     -0.032631      0.047723     -0.017880      0.014129     -0.002029      0.005351     -0.006016      0.018537     -0.008182
  43 H       0.047805     -0.031049      0.011107     -0.005750      0.003607      0.016008     -0.005463      0.017589     -0.003160     -0.012972
  44 H      -0.035064      0.031257     -0.014259      0.014417     -0.004684     -0.010299     -0.006186     -0.013416     -0.010460      0.008282
  45 H       0.048534      0.002782      0.001910      0.002835     -0.000465      0.016557     -0.002962      0.014721     -0.000407     -0.000608
  46 H       0.003683      0.009029     -0.052048      0.004764     -0.018538      0.002756     -0.003206      0.001953     -0.016565      0.005645
  47 H       0.039448     -0.004733      0.035694     -0.000553      0.013816      0.012761     -0.000929      0.013495      0.016417     -0.002126
  48 H       0.047810     -0.023299      0.011718     -0.006840      0.004897      0.017128     -0.001243      0.014236      0.007129     -0.008038
  49 H      -0.038098     -0.026699      0.023802     -0.008915      0.006907     -0.012962      0.000879     -0.010763      0.011529     -0.011157
  50 H      -0.028743     -0.003855     -0.044887     -0.002229     -0.016611     -0.013796     -0.000164     -0.011888     -0.020163      0.004060
  51 H      -0.024112     -0.044006     -0.014162     -0.013644     -0.007789     -0.007181     -0.001615     -0.010828     -0.001458     -0.014759
  52 H       0.038022      0.025758      0.022122      0.012432      0.006902      0.015770     -0.001238      0.014229      0.004388      0.008119
  53 H      -0.017590      0.036441     -0.024088      0.012163     -0.008344     -0.002752      0.000349     -0.004500     -0.009895      0.011908

 MBIS THIRD RADIAL MOMENT (A.U.):
  ATOM      <r^3>
   0 C   43.667046
   1 C   41.119374
   2 C   41.765728
   3 C   33.340587
   4 C   40.968845
   5 C   29.748109
   6 F   18.081942
   7 C   38.897045
   8 C   32.388648
   9 C   40.101548
  10 C   29.105567
  11 F   17.828262
  12 C   43.280618
  13 C   22.939988
  14 O   25.755069
  15 O   24.194595
  16 C   30.287117
  17 C   40.933862
  18 C   29.835490
  19 F   18.069632
  20 C   37.135204
  21 C   33.585672
  22 C   39.678759
  23 C   31.595185
  24 F   18.095293
  25 C   33.840739
  26 F   17.901766
  27 C   31.640270
  28 F   18.096645
  29 C   39.888389
  30 C   36.454631
  31 C   39.836779
  32 C   29.392106
  33 F   18.097694
  34 C   40.254545
  35 C   29.758930
  36 F   17.961055
  37 C   41.191399
  38 H    2.221673
  39 H    2.381357
  40 H    2.412624
  41 H    2.341258
  42 H    2.302893
  43 H    2.237142
  44 H    2.208121
  45 H    2.003795
  46 H    1.911753
  47 H    1.800682
  48 H    1.891501
  49 H    1.969471
  50 H    2.122888
  51 H    2.011039
  52 H    1.907856
  53 H    1.993086

-------------------------
RESP CHARGES GENERATION
-------------------------
Number of atoms                    ...           54
Number of "pure atoms"             ...           54
Grid spacing                       ...     0.300000
Point Cut-Off                      ...     2.800000
Van-der-Waals Radii                ...        COSMO
Total charge                       ...            0
Penalty function                   ... hyperbolic
Penalty function wa                ... 0.000500
Penalty function wb                ... 0.100000
Dipole moment constraint           ...        FALSE
Equivalent atom charge constraint  ...        FALSE

Grid generated                     ...      0.0 sec
Grid points                        ...        26540
Potential calculated               ...      9.5 sec
RespFile stored                    ...           ok

Iter     dqmax
--------------

0     0.955285
1     0.040849
2     0.004942
3     0.000631
4     0.000081
5     0.000010
6     0.000001
7     0.000000

Charges calculated                 ...      1.6 sec

RESP Charges            
--------------------------------
  0   C   :      -0.367406
  1   C   :       0.247072
  2   C   :      -0.283821
  3   C   :       0.268206
  4   C   :      -0.389778
  5   C   :       0.348464
  6   F   :      -0.198466
  7   C   :      -0.327164
  8   C   :       0.462600
  9   C   :      -0.521579
 10   C   :       0.478438
 11   F   :      -0.201129
 12   C   :      -0.557587
 13   C   :       0.941953
 14   O   :      -0.522995
 15   O   :      -0.501584
 16   C   :       0.541011
 17   C   :      -0.522949
 18   C   :       0.352625
 19   F   :      -0.209791
 20   C   :       0.007020
 21   C   :       0.155952
 22   C   :      -0.433898
 23   C   :       0.302389
 24   F   :      -0.184742
 25   C   :       0.104278
 26   F   :      -0.152351
 27   C   :       0.309373
 28   F   :      -0.182702
 29   C   :      -0.433285
 30   C   :      -0.206187
 31   C   :      -0.344027
 32   C   :       0.508962
 33   F   :      -0.210313
 34   C   :      -0.533180
 35   C   :       0.424857
 36   F   :      -0.220184
 37   C   :      -0.510586
 38   H   :       0.105716
 39   H   :       0.081618
 40   H   :       0.097810
 41   H   :      -0.019876
 42   H   :      -0.017812
 43   H   :       0.077027
 44   H   :       0.111187
 45   H   :       0.211392
 46   H   :       0.243138
 47   H   :       0.261337
 48   H   :       0.273393
 49   H   :       0.233099
 50   H   :       0.192075
 51   H   :       0.217572
 52   H   :       0.254285
 53   H   :       0.240542
--------------------------------
Total charge:     0.000000
--------------------------------

RESP charges calculated...

Timings:
Grid generation                 ...        0.019 sec (=   0.000 min)
Potential calculation           ...        9.544 sec (=   0.159 min)
Fit to the potential            ...        1.633 sec (=   0.027 min)
------------------------------------------------------------------------------

-------
TIMINGS
-------

Total SCF time: 0 days 0 hours 14 min 9 sec 

Total time                  ....     849.258 sec
Sum of individual times     ....     822.552 sec  ( 96.9%)

SCF preparation             ....       3.587 sec  (  0.4%)
Fock matrix formation       ....     693.445 sec  ( 81.7%)
  Startup                   ....       0.064 sec  (  0.0% of F)
  Split-RI-J                ....      52.004 sec  (  7.5% of F)
  Chain of spheres X        ....     645.619 sec  ( 93.1% of F)
  XC integration            ....      21.518 sec  (  3.1% of F)
    XC Preparation          ....       0.000 sec  (  0.0% of XC)
    Basis function eval.    ....       5.904 sec  ( 27.4% of XC)
    Density eval.           ....       5.964 sec  ( 27.7% of XC)
    XC-Functional eval.     ....       1.137 sec  (  5.3% of XC)
    XC-Potential eval.      ....       6.660 sec  ( 31.0% of XC)
Diagonalization             ....       0.000 sec  (  0.0%)
Density matrix formation    ....       0.351 sec  (  0.0%)
Total Energy calculation    ....       0.191 sec  (  0.0%)
Population analysis         ....     122.098 sec  ( 14.4%)
Orbital Transformation      ....       0.280 sec  (  0.0%)
Orbital Orthonormalization  ....       0.000 sec  (  0.0%)
DIIS solution               ....       1.717 sec  (  0.2%)
SOSCF solution              ....       0.883 sec  (  0.1%)
Finished LeanSCF after 849.3 sec

Maximum memory used throughout the entire LEANSCF-calculation: 147.3 MB


-------------------------------------------------------------------------------
                          DFT DISPERSION CORRECTION                            
                                                                               
                                DFTD4 V3.4.0                                   
-------------------------------------------------------------------------------
The wB97X-3c composite method is recognized
Using three-body term ABC
Active option DFTDOPT                   ...         5   

-------------------------   ----------------
Dispersion correction           -0.093245028
-------------------------   ----------------


-------------------------   --------------------
FINAL SINGLE POINT ENERGY      -395.795479960864
-------------------------   --------------------



           ************************************************************
           *        Program running with 4 parallel MPI-processes     *
           *              working on a common directory               *
           ************************************************************

------------------------------------------------------------------------------
                              ORCA PROPERTY CALCULATIONS
------------------------------------------------------------------------------

GBWName                                 ... conf_024.gbw
Number of atoms                         ...     54
Number of basis functions               ...    574
Max core memory                         ...   4000 MB

Electric properties:
Dipole moment                           ... YES
Quadrupole moment                       ...  NO
Static polarizability (Dipole/Dipole)   ...  NO
Static polarizability (Dipole/Quad.)    ...  NO
Static polarizability (Quad./Quad.)     ...  NO
Static polarizability (Velocity)        ...  NO
Static hyperpolarizability              ...  NO

Atomic electric properties:
Dipole moment                           ...  NO
Quadrupole moment                       ...  NO
Static polarizability                   ...  NO

Choice of electric origin               ... Center of mass
Position of electric origin             ...    -1.293442    -0.661821     0.430292

General magnetic properties:
Magnetizability                         ...  NO

EPR properties:
g-Tensor (aka g-matrix)                 ...  NO
Zero-Field splitting spin-orbit         ...  NO
Zero-field splitting spin-spin          ...  NO
Hyperfine couplings                     ...  NO (   0 nuclei)
Quadrupole couplings                    ...  NO (   0 nuclei)
Contact density                         ...  NO (   0 nuclei)

NMR properties:
Chemical shifts                         ...  NO (   0 nuclei)
Spin-rotation constants                 ...  NO (   0 nuclei)
Spin-spin couplings                     ...  NO (   0 nuclei,    0 pairs)

Choice of magnetic origin               ... GIAO
Position of magnetic origin             ...     0.000000     0.000000     0.000000

Properties with geometric perturbations:
SCF Hessian                             ...  NO
IR spectrum                             ...  NO
VCD spectrum                            ...  NO
X-ray spectroscopy properties:
SCF XES/XAS/RIXS spectra                ...  NO

SCF SOC stabilization energy            ...  NO
Diagonal Born-Oppenheimer correction    ...  NO

-------------
DIPOLE MOMENT
-------------

Method             : SCF
Type of density    : Electron Density
Multiplicity       :   1
Irrep              :   0
Energy             :  -395.7022349330268867 Eh
Basis              : AO
                                X                 Y                 Z
Electronic contribution:    -32.961658071     -21.268510020       8.044299816
Nuclear contribution   :     34.385079960      22.351977262      -9.232130164
                        -----------------------------------------
Total Dipole Moment    :      1.423421889       1.083467241      -1.187830348
                        -----------------------------------------
Magnitude (a.u.)       :      2.147317413
Magnitude (Debye)      :      5.458047107



--------------------
Rotational spectrum 
--------------------
 
Rotational constants in cm-1:             0.003225             0.002689             0.001589 
Rotational constants in MHz :            96.697961            80.627676            47.631075 

Dipole components along the rotational axes: 
x,y,z [a.u.] :     0.816087     1.938834    -0.431159 
x,y,z [Debye]:     2.074328     4.928124    -1.095919 

 

Dipole moment calculation done in   0.0 sec 

Maximum memory used throughout the entire PROP-calculation: 69.8 MB

--------------------------------
SUGGESTED CITATIONS FOR THIS RUN
--------------------------------

Below you find a list of papers that are relevant to this ORCA run
We neither can nor want to force you to cite these papers, but we appreciate if you do
You receive ORCA, which is the product of decades of hard work by many enthusiastic individuals, for free
The only thing we kindly ask in return is that you cite our papers,
We deeply appreciate it, if you show your appreciation for ORCA by not just citing the generic ORCA reference.

Please note that relegating all ORCA citations to the supporting information does *not* help us.
SI sections are not indexed - citations you put there will not count into any citation statistics
But we need these citations in order to attract the funding resources that allow us to do what we are doing

Therefore, if you are a happy ORCA user, please consider citing a few of the papers listed below in the main body of your paper

In addition to the list printed below, the program has created the file conf_024.bibtex that contains the list in bibtex format
You can import this file easily into all common literature databanks and citation aid programs


List of essential papers. We consider these as the minimum necessary citations

  1. Mueller, M.; Hansen, A.; Grimme, S.
     wB97X-3c: A composite range-separated hybrid DFT method with a molecule-optimized polarized valence double-zeta basis set
     J. Chem. Phys. 2023 158 , 014103
     doi.org/10.1063/5.0133026
  2. Neese, F.
     Software update: the ORCA program system, version 6.0
     WIRES Comput. Molec. Sci. 2025 15(1), e70019
     doi.org/10.1002/wcms.7019

List of papers to cite with high priority. The work reported in these papers was absolutely
necessary for this run to complete.
Our perspective: the developers of density functionals and basis sets usually get cited in chemistry papers
Good! But without the algorithms to do something with them, the functionals or basis sets would not do anything.
Hence, in our opinion, the algorithm design and method developments papers are equally worthy of getting cited

  1. Neese, F.
     An improvement of the resolution of the identity approximation for the formation of the Coulomb matrix
     J. Comp. Chem. 2003 24(14), 1740-1747
     doi.org/10.1002/jcc.10318
  2. Neese, F.; Wennmohs, F.; Hansen, A.; Becker, U.
     Efficient, approximate and parallel Hartree-Fock and hybrid DFT calculations. A 'chain-of-spheres' algorithm for the Hartree-Fock exchange
     Chem. Phys. 2009 356(1-3), 98-109
     doi.org/10.1016/j.chemphys.2008.10.036
  3. Caldeweyher, E.; Bannwarth, C.; Grimme, S.
     Extension of the D3 dispersion coefficient model
     J. Chem. Phys. 2017 147 , 034112
     doi.org/10.1063/1.4993215
  4. Caldeweyher, E.; Ehlert, S.; Hansen, A.; Neugebauer, H.; Spicher, S.; Bannwarth, C.; Grimme, S.
     A generally applicable atomic-charge dependent London dispersion correction
     J. Chem. Phys. 2019 150 , 154122
     doi.org/10.1063/1.5090222
  5. Caldeweyher, E.; Mewes, J.; Ehlert, S.; Grimme, S.
     Extension and evaluation of the D4 London-dispersion model for periodic systems
     Phys. Chem. Chem. Phys. 2020 22(16), 8499-8512
     doi.org/10.1039/D0CP00502A
  6. Helmich-Paris, B.; de Souza, B.; Neese, F.; Izsák, R.
     An improved chain of spheres for exchange algorithm
     J. Chem. Phys. 2021 155(10), 104109
     doi.org/10.1063/5.0058766
  7. Neese, F.
     The SHARK Integral Generation and Digestion System
     J. Comp. Chem. 2022 44(3), 381
     doi.org/10.1002/jcc.26942
  8. Wittmann, L.; Gordiy, I.; Friede, M.; Helmich-Paris, B.; Grimme, S.; Hansen, A.; Bursch, M.
     Extension of the D3 and D4 London Dispersion Corrections to the full Actinides Series
     Phys. Chem. Chem. Phys. 2024 26(32), 21379-21394
     doi.org/10.1039/D4CP01514B

List of suggested additional citations. These are papers that are important in the 'surrounding' of 
of this run, or papers that preceded the highly important papers. If you like your results we are grateful for a citation.

  1. Izsak, R.; Neese, F.
     An overlap fitted chain of spheres exchange method
     J. Chem. Phys. 2011 135 , 144105
     doi.org/10.1063/1.3646921
  2. Izsak, R.; Hansen, A.; Neese, F.
     The resolution of identity and chain of spheres approximations for the LPNO-CCSD singles Fock term
     Molec. Phys. 2012 110 , 2413-2417
     doi.org/10.1080/00268976.2012.687466
  3. Neese, F.
     The ORCA program system
     WIRES Comput. Molec. Sci. 2012 2(1), 73-78
     doi.org/10.1002/wcms.81
  4. Izsak, R.; Neese, F.; Klopper, W.
     Robust fitting techniques in the chain of spheres approximation to the Fock exchange: The role of the complementary space
     J. Chem. Phys. 2013 139 , 
     doi.org/10.1063/1.4819264
  5. Neese, F.
     Software update: the ORCA program system, version 4.0
     WIRES Comput. Molec. Sci. 2018 8(1), 1-6
     doi.org/10.1002/wcms.1327
  6. Neese, F.; Wennmohs, F.; Becker, U.; Riplinger, C.
     The ORCA quantum chemistry program package
     J. Chem. Phys. 2020 152(22), 224108
     doi.org/10.1063/5.0004608
  7. Neese, F.
     Software update: The ORCA program system—Version 5.0
     WIRES Comput. Molec. Sci. 2022 12(1), e1606
     doi.org/10.1002/wcms.1606

List of optional additional citations

  1. Neese, F.
     Approximate second-order SCF convergence for spin unrestricted wavefunctions
     Chem. Phys. Lett. 2000 325(1-3), 93-98
     doi.org/10.1016/s0009-2614(00)00662-x

Timings for individual modules:

Sum of individual times          ...      876.561 sec (=  14.609 min)
Startup calculation              ...       13.991 sec (=   0.233 min)   1.6 %
SCF iterations                   ...      860.733 sec (=  14.346 min)  98.2 %
Property calculations            ...        1.837 sec (=   0.031 min)   0.2 %
                             ****ORCA TERMINATED NORMALLY****
TOTAL RUN TIME: 0 days 0 hours 14 minutes 38 seconds 367 msec
