Loading openmpi/5.0.6/gcc-14.2.0
  Loading requirement: gcc/14.2.0

                                 *****************
                                 * O   R   C   A *
                                 *****************

                                            #,                                       
                                            ###                                      
                                            ####                                     
                                            #####                                    
                                            ######                                   
                                           ########,                                 
                                     ,,################,,,,,                         
                               ,,#################################,,                 
                          ,,##########################################,,             
                       ,#########################################, ''#####,          
                    ,#############################################,,   '####,        
                  ,##################################################,,,,####,       
                ,###########''''           ''''###############################       
              ,#####''   ,,,,##########,,,,          '''####'''          '####       
            ,##' ,,,,###########################,,,                        '##       
           ' ,,###''''                  '''############,,,                           
         ,,##''                                '''############,,,,        ,,,,,,###''
      ,#''                                            '''#######################'''  
     '                                                          ''''####''''         
             ,#######,   #######,   ,#######,      ##                                
            ,#'     '#,  ##    ##  ,#'     '#,    #''#        ,####,    ,#,          
            ##       ##  ##   ,#'  ##            #'  '#       #'       ,# #          
            ##       ##  #######   ##           ,######,      #####,      #          
            '#,     ,#'  ##    ##  '#,     ,#' ,#      #,     #,   #      #          
             '#######'   ##     ##  '#######'  #'      '#     '####' #    #          



                #########################################################
                #                        -***-                          #
                #          Department of theory and spectroscopy        #
                #                                                       #
                #                      Frank Neese                      #
                #                                                       #
                #     Directorship, Architecture, Infrastructure        #
                #                    SHARK, DRIVERS                     #
                #        Core code/Algorithms in most modules           #
                #                                                       #
                #        Max Planck Institute fuer Kohlenforschung      #
                #                Kaiser Wilhelm Platz 1                 #
                #                 D-45470 Muelheim/Ruhr                 #
                #                      Germany                          #
                #                                                       #
                #                  All rights reserved                  #
                #                        -***-                          #
                #########################################################


                         Program Version 6.1.0  -  RELEASE   -
                                (GIT: $679e74b$)
                          ($2025-06-10 18:02:51 +0200$)


 With contributions from (in alphabetic order):
[Max-Planck-Institut fuer Kohlenforschung]                               
  Daniel Aravena         : Magnetic Suceptibility                        
  Michael Atanasov       : Ab Initio Ligand Field Theory (pilot matlab implementation)
  Alexander A. Auer      : GIAO ZORA, VPT2 properties, NMR spectrum      
  Ute Becker             : All parallelization in ORCA, NUMFREQ, NUMCALC 
  Giovanni Bistoni       : ED, misc. LED, open-shell LED, HFLD           
  Dmytro Bykov           : pre 5.0 version of the SCF Hessian            
  Marcos Casanova-Páez   : Triplet and SCS-CIS(D). UHF-(DLPNO)-IP/EA/STEOM-CCSD. UHF-CVS-IP/STEOM-CCSD   
  Vijay G. Chilkuri      : MRCI spin determinant printing, contributions to CSF-ICE 
  Pauline Colinet        : FMM embedding                                 
  Dipayan Datta          : RHF DLPNO-CCSD density                        
  Achintya Kumar Dutta   : EOM-CC, STEOM-CC                              
  Nicolas Foglia         : Exact transition moments, OPA infrastructure, MCD improvements    
  Dmitry Ganyushin       : Spin-Orbit,Spin-Spin,Magnetic field MRCI      
  Miquel Garcia-Rates    : C-PCM and meta-GGA Hessian, CCSD/C-PCM, Gaussian charge scheme 
  Tiago L. C. Gouveia    : GS-ROHF, GS-ROCIS                             
  Yang Guo               : DLPNO-NEVPT2, F12-NEVPT2, CIM, IAO-localization        
  Andreas Hansen         : Spin unrestricted coupled pair/coupled cluster methods 
  Ingolf Harden          : AUTO-CI MPn and infrastructure                
  Benjamin Helmich-Paris : MC-RPA, TRAH-(SCF,CASSCF), AVAS, COSX integrals, SCF dyn. polar., MC-PDFT, srDFT 
  Lee Huntington         : MR-EOM, pCC                                   
  Robert Izsak           : Overlap fitted RIJCOSX, COSX-SCS-MP3, EOM     
  Riya Kayal             : Wick's Theorem for AUTO-CI, AUTO-CI UHF-CCSDT 
  Emily Kempfer          : AUTO-CI RHF CISDT and CCSDT, approximate NEVPT4
  Christian Kollmar      : KDIIS, OOCD, Brueckner-CCSD(T), CCSD density, CASPT2, CASPT2-K, improved NEVPT2 
  Axel Koslowski         : Symmetry handling                             
  Simone Kossmann        : meta-GGA functionals, TD-DFT gradient, OOMP2, (MP2 Hessian; deprecated post 5.0) 
  Lucas Lang             : DCDCAS, Hyperfine gauge corrections, ICE-SOC+SSC
  Marvin Lechner         : AUTO-CI (C++ implementation), FIC-MRCC        
  Spencer Leger          : CASSCF response                               
  Dagmar Lenk            : GEPOL surface, SMD, ORCA-2-JSON               
  Dimitrios Liakos       : Extrapolation schemes; Compound Job, Property file
  Dimitrios Manganas     : Further ROCIS development; embedding schemes. LFT, Crystal Embedding 
  Dimitrios Pantazis     : SARC Basis sets                               
  Anastasios Papadopoulos: AUTO-CI, single reference methods and gradients 
  Taras Petrenko         : pre 6.0 DFT Hessian and TD-DFT gradient,  ECA, NRVS 
  Petra Pikulova         : Analytic Raman intensities                    
  Peter Pinski           : DLPNO-MP2, DLPNO-MP2 Gradient                 
  Shashank Vittal Rao    : ES-AILFT, MagRelax                            
  Christoph Reimann      : Effective Core Potentials                     
  Marius Retegan         : Local ZFS, SOC                                
  Christoph Riplinger    : Optimizer, TS searches, QM/MM, DLPNO-CCSD(T), (RO)-DLPNO pert. Triples 
  Michael Roemelt        : Original ROCIS implementation, recursive CI coupling coefficients
  Masaaki Saitow         : Open-shell DLPNO-CCSD energy and density      
  Barbara Sandhoefer     : DKH picture change effects                    
  Yorick L. A. Schmerwitz: GMF and freeze-and-release deltaSCF, NEB S-IDPP initial path                    
  Kantharuban Sivalingam : CASSCF convergence/infrastructure, NEVPT2, NEVPT3, NEVPT4(SD), FIC-MRCI and CEPA variants
  Bernardo de Souza      : ESD, SOC TD-DFT                               
  Georgi L. Stoychev     : AutoAux, RI-MP2 NMR, DLPNO-MP2 response, X2C  
  Van Anh Tran           : RI-MP2 g-tensors                              
  Willem Van den Heuvel  : Paramagnetic NMR                              
  Zikuan Wang            : NOTCH, Electric field optimization            
  Frank Wennmohs         : Technical directorship and infrastructure     
  Hang Xu                : AUTO-CI-Response properties                   
                                                                         
[FACCTs GmbH]                                                            
  Markus Bursch, Nicolas Foglia, Miquel Garcia-Rates, Ingolf Harden, Hagen Neugebauer, Anastasios Papadopoulos, 
  Christoph Riplinger, Bernardo de Souza, Georgi L. Stoychev                                                    
                                                                 
  APM, various basis sets, CI-OPT, improved COSX, DLPNO-Multilevel,           
  DOCKER, DRACO, updates on ESD, Fragmentator, GOAT, IRC, LR-CPCM, L-BFGS, MBIS, meta-GGA TD-DFT gradient, ML-optimized integration grids, 
  MM, NACMEs, nearIR, NEB, NEB-TS, NL-DFT gradient (VV10), 2- and 3-layer-ONIOM, interface openCOSMO-RS, QMMM,   
  Crystal-QMMM, RESP, rigid body optimization, SF, symmetry and pop. for TD-DFT, various functionals, SOLVATOR                                   
                                                                         
[Other institutions]                                                     
  V. Asgeirsson          : NEB                                           
  Christoph Bannwarth    : sTDA-DFT, sTD-DFT, PBEh-3c, B97-3c, D3        
  Giovanni Bistoni       : ETS/NOCV, ADLD/ADEX, COVALED                  
  Martin Brehm           : Molecular dynamics                            
  Ronald Cardenas        : ETS/NOCV                                      
  Martina Colucci        : COVALED                                       
  Sebastian Ehlert       : rSCAN, r2SCAN, r2SCAN-3c, D4, dhf basis sets  
  Marvin Friede          : D4 for Fr, Ra, Ac-Lr                          
  Lars Goerigk           : TD-DFT with DH, B97 family of functionals     
  Stefan Grimme          : VdW corrections, initial TS optimization, DFT functionals, gCP, sTDA/sTD-DF 
  Waldemar Hujo          : DFT-NL                                        
  H. Jonsson             : NEB                                           
  Holger Kruse           : gCP                                           
  Marcel Mueller         : wB97X-3c, vDZP basis set                      
  Hagen Neugebauer       : wr2SCAN, Native XTB                           
  Gianluca Regni         : ADLD/ADEX                                     
  Tobias Risthaus        : pre 6.0 range-separated hybrid DFT and stability analysis
  Lukas Wittmann         : regularized MP2, r2SCAN double-hybrids, wr2SCAN        
                                                                         
We gratefully acknowledge several colleagues who have allowed us to      
interface, adapt or use parts of their codes:                            
  Ed Valeev, F. Pavosevic, A. Kumar             : LibInt (2-el integral package), F12 methods 
  Garnet Chan, S. Sharma, J. Yang, R. Olivares  : DMRG                   
  Ulf Ekstrom                                   : XCFun DFT Library      
  Mihaly Kallay                                 : mrcc  (arbitrary order and MRCC methods)
  Frank Weinhold                                : gennbo (NPA and NBO analysis)           
  Simon Mueller                                 : openCOSMO-RS                            
  Christopher J. Cramer and Donald G. Truhlar   : smd solvation model                     
  S Lehtola, MJT Oliveira, MAL Marques          : LibXC Library                           
  Liviu Ungur et al                             : ANISO software                          


 Your calculation uses the libint2 library for the computation of 2-el integrals
 For citations please refer to: http://libint.valeyev.net

 Your ORCA version has been built with support for libXC version: 7.0.0
 For citations please refer to: https://libxc.gitlab.io

 This ORCA versions uses:
   CBLAS   interface :  Fast vector & matrix operations
   LAPACKE interface :  Fast linear algebra routines
   SCALAPACK package :  Parallel linear algebra routines
   Shared memory     :  Shared parallel matrices
   BLAS/LAPACK       :  OpenBLAS 0.3.29  USE64BITINT DYNAMIC_ARCH NO_AFFINITY Cooperlake SINGLE_THREADED
        Core in use  :  Cooperlake
   Copyright (c) 2011-2014, The OpenBLAS Project


  ***********************************
  * Starting time: Wed May 13 14:54:46 2026
  * Host name:     node043.aire.lee.alces.network
  * Process ID:    676879
  * Working dir.:  /tmp/job.4919708
  ***********************************

NOTE: MaxCore=4000 MB was set to SCF,MP2,MDCI,CIPSI,MRCI,RASCI and CIS
      => If you want to overwrite this, your respective input block should be placed after the MaxCore statement


***************************************
The coordinates will be read from file: conf_007.xyz
***************************************


Your calculation utilizes the atom-pairwise dispersion correction
based on EEQ partial charges (D4)


================================================================================

cite the ECPs for C  [vDZP-ECP], F  [vDZP-ECP], O  [vDZP-ECP] as follows:
   B-Ne (ecp-2-mwb), Al-Ar (ecp-10-mwb), Ga-Kr (ecp-28-mwb), Y-Cd (ecp-28-mwb), In-Xe (ecp-46-mwb):
     A. Bergner, M. Dolg, W. Küchle, H. Stoll, and H. Preuß, Mol. Phys. 80, 1431 (1993)., T. Leininger, A. Berning, A. Nicklass, H. Stoll, H.-J. Werner, and H.-J.Flad, Chem. Phys. 217, 19 (1997).
   Na-Mg, K-Ca, Rb-Sr, Cs-Ba (CRENBL):
     L. Fernandez Pacios and P. A. Christiansen, J. Chem. Phys. 82, 2664 (1985)., M. M. Hurley, L. F. Pacios, P. A. Christiansen, R. B. Ross, and W. C. Ermler, J. Chem. Phys. 84, 6840 (1986)., L. A. LaJohn, P. A. Christiansen, R. B. Ross, T. Atashroo, and W. C. Ermler, J. Chem. Phys. 87, 2812 (1987)., R. B. Ross, J. M. Powers, T. Atashroo, W. C. Ermler, L. A. LaJohn, and P. A. Christiansen, J. Chem. Phys. 93, 6654 (1990). 
   Sc-Zn (ecp-10-mdf):
     M. Dolg, U. Wedig, H. Stoll, and H. Preuss, J. Chem. Phys. 86, 866 (1986). 
   Y-Cd (ecp-28-mwb), Hf-Hg (ecp-60-mwb):
     D. Andrae, U. Häußermann, M. Dolg, H. Stoll, and H. Preuß, Theor. Chim. Acta 77, 123 (1990). 
   La (ecp-46-mwb):
     M. Dolg, H. Stoll, and H. Preuss, J. Chem. Phys. 90, 1730 (1989)., M. Dolg, H. Stoll, and H. Preuss, Theor. Chim. Acta 85, 441 (1993).
   Ce-Lu (SBKJC-ecp):
     T. R. Cundari and W. J. Stevens, J. Chem. Phys. 98, 5555 (1993).
   Tl-Rn (ecp-78-mwb):
     W. Küchle, M. Dolg, H. Stoll, and H. Preuss, Mol. Phys. 74, 1245 (1991).

ECP parameters for C  [vDZP-ECP], F  [vDZP-ECP], O  [vDZP-ECP] have been obtained from:
MM, AH, SG, J. Chem. Phys. 158, 014103 (2023), 10.1063/5.0133026

----- Orbital basis set information -----
Your calculation utilizes the basis: vDZP
   Marcel Mueller, Andreas Hansen, Stefan Grimme 
   J. Chem. Phys. 158, 014103 (2023). DOI: 10.1063/5.0133026

----- AuxJ basis set information -----
Your calculation utilizes the auxiliary basis: def2/J
   H-Rn: F. Weigend, Phys. Chem. Chem. Phys. 8, 1057 (2006).
   Fr-Lr: K. Eichkorn, F. Weigend, O. Treutler, R. Ahlrichs; Theor. Chem. Acc. 97, 119 (1997).

================================================================================
                                        WARNINGS
                       Please study these warnings very carefully!
================================================================================

WARNING: Frozen-Core approximation turned on, but there are no core electrons.
  ===> : Turning off frozen-core approximation


================================================================================
                                       INPUT FILE
================================================================================
NAME = conf_007.inp
|  1> ! wb97x-3c mbis hirshfeld chelpg resp
|  2> %pal nprocs 4 end
|  3> %maxcore 4000
|  4> %method
|  5> 	   MBIS_LARGEPRINT TRUE
|  6> 	end
|  7> #conf_007
|  8> * xyzfile 0 1 conf_007.xyz
|  9> 
| 10>                          ****END OF INPUT****
================================================================================

                       ****************************
                       * Single Point Calculation *
                       ****************************

---------------------------------
CARTESIAN COORDINATES (ANGSTROEM)
---------------------------------
  C      8.954272   -0.875745    0.261652
  C      8.988222    0.524573    0.859009
  C      8.363452    1.570764   -0.076655
  C      6.900027    1.319054   -0.271890
  C      6.422991    0.699851   -1.419717
  C      5.072601    0.449254   -1.561762
  F      4.658696   -0.168573   -2.683300
  C      4.132098    0.779971   -0.586043
  C      2.696765    0.503885   -0.749564
  C      2.057512    0.791577   -1.952518
  C      0.710039    0.524210   -2.090610
  F      0.115119    0.841551   -3.243721
  C     -0.054260   -0.019955   -1.057630
  C     -1.503012   -0.322177   -1.255458
  O     -1.969296   -0.778509   -2.260249
  O     -2.181576   -0.021090   -0.134258
  C     -3.535358   -0.223447    0.012743
  C     -4.445679   -0.220189   -1.033828
  C     -5.786460   -0.390531   -0.741012
  F     -6.648903   -0.402212   -1.773795
  C     -6.263389   -0.569175    0.555826
  C     -7.692835   -0.758437    0.846093
  C     -8.662909    0.010387    0.208859
  C     -9.998940   -0.176498    0.507229
  F    -10.920860    0.578365   -0.104258
  C    -10.404968   -1.127729    1.437174
  F    -11.700873   -1.302768    1.721601
  C     -9.427170   -1.892172    2.064836
  F     -9.789966   -2.818935    2.962994
  C     -8.087800   -1.712960    1.780587
  C     -5.317978   -0.567908    1.582310
  C     -3.976049   -0.393101    1.323092
  C      0.615993   -0.294217    0.134234
  F     -0.052265   -0.851733    1.153565
  C      1.963501   -0.046393    0.298838
  C      4.648456    1.394964    0.555637
  F      3.801341    1.770148    1.532857
  C      5.990518    1.668057    0.719695
  H      7.929578   -1.195658    0.086707
  H      9.490013   -0.900984   -0.684604
  H      9.423812   -1.585479    0.938093
  H      8.452889    0.527975    1.810262
  H     10.023267    0.809611    1.055494
  H      8.876706    1.541187   -1.038488
  H      8.505042    2.561325    0.359631
  H      7.092804    0.406880   -2.212627
  H      2.590965    1.226453   -2.782190
  H     -4.139463   -0.101512   -2.060017
  H     -8.397433    0.763355   -0.515090
  H     -7.363709   -2.338530    2.277156
  H     -5.652113   -0.685755    2.601125
  H     -3.248497   -0.386597    2.118476
  H      2.428257   -0.292506    1.239907
  H      6.316823    2.158075    1.623560

----------------------------
CARTESIAN COORDINATES (A.U.)
----------------------------
  NO LB      ZA    FRAG     MASS         X           Y           Z
   0 C     4.0000*   0    12.011   16.921122   -1.654918    0.494451
   1 C     4.0000*   0    12.011   16.985278    0.991300    1.623292
   2 C     4.0000*   0    12.011   15.804634    2.968313   -0.144857
   3 C     4.0000*   0    12.011   13.039161    2.492651   -0.513798
   4 C     4.0000*   0    12.011   12.137695    1.322528   -2.682875
   5 C     4.0000*   0    12.011    9.585826    0.848967   -2.951302
   6 F     7.0000*   0    18.998    8.803660   -0.318556   -5.070703
   7 C     4.0000*   0    12.011    7.808534    1.473932   -1.107460
   8 C     4.0000*   0    12.011    5.096147    0.952205   -1.416472
   9 C     4.0000*   0    12.011    3.888134    1.495864   -3.689724
  10 C     4.0000*   0    12.011    1.341779    0.990614   -3.950681
  11 F     7.0000*   0    18.998    0.217544    1.590300   -6.129744
  12 C     4.0000*   0    12.011   -0.102536   -0.037709   -1.998632
  13 C     4.0000*   0    12.011   -2.840281   -0.608826   -2.372471
  14 O     6.0000*   0    15.999   -3.721431   -1.471169   -4.271251
  15 O     6.0000*   0    15.999   -4.122581   -0.039854   -0.253711
  16 C     4.0000*   0    12.011   -6.680858   -0.422253    0.024081
  17 C     4.0000*   0    12.011   -8.401115   -0.416097   -1.953652
  18 C     4.0000*   0    12.011  -10.934825   -0.737997   -1.400309
  19 F     7.0000*   0    18.998  -12.564605   -0.760070   -3.351987
  20 C     4.0000*   0    12.011  -11.836090   -1.075584    1.050359
  21 C     4.0000*   0    12.011  -14.537352   -1.433237    1.598885
  22 C     4.0000*   0    12.011  -16.370526    0.019628    0.394686
  23 C     4.0000*   0    12.011  -18.895258   -0.333532    0.958525
  24 F     7.0000*   0    18.998  -20.637435    1.092952   -0.197019
  25 C     4.0000*   0    12.011  -19.662539   -2.131099    2.715866
  26 F     7.0000*   0    18.998  -22.111445   -2.461874    3.253354
  27 C     4.0000*   0    12.011  -17.814770   -3.575686    3.901974
  28 F     7.0000*   0    18.998  -18.500355   -5.327015    5.599248
  29 C     4.0000*   0    12.011  -15.283726   -3.237025    3.364821
  30 C     4.0000*   0    12.011  -10.049521   -1.073191    2.990133
  31 C     4.0000*   0    12.011   -7.513644   -0.742854    2.500282
  32 C     4.0000*   0    12.011    1.164059   -0.555990    0.253666
  33 F     7.0000*   0    18.998   -0.098767   -1.609542    2.179923
  34 C     4.0000*   0    12.011    3.710479   -0.087671    0.564722
  35 C     4.0000*   0    12.011    8.784309    2.636100    1.050001
  36 F     7.0000*   0    18.998    7.183494    3.345095    2.896680
  37 C     4.0000*   0    12.011   11.320438    3.152171    1.360027
  38 H     1.0000    0     1.008   14.984731   -2.259467    0.163852
  39 H     1.0000    0     1.008   17.933526   -1.702614   -1.293713
  40 H     1.0000    0     1.008   17.808424   -2.996121    1.772739
  41 H     1.0000    0     1.008   15.973645    0.997728    3.420900
  42 H     1.0000    0     1.008   18.941230    1.529943    1.994595
  43 H     1.0000    0     1.008   16.774544    2.912421   -1.962458
  44 H     1.0000    0     1.008   16.072199    4.840203    0.679604
  45 H     1.0000    0     1.008   13.403457    0.768892   -4.181259
  46 H     1.0000    0     1.008    4.896214    2.317659   -5.257577
  47 H     1.0000    0     1.008   -7.822451   -0.191830   -3.892869
  48 H     1.0000    0     1.008  -15.868848    1.442531   -0.973380
  49 H     1.0000    0     1.008  -13.915394   -4.419181    4.303201
  50 H     1.0000    0     1.008  -10.680946   -1.295889    4.915414
  51 H     1.0000    0     1.008   -6.138769   -0.730562    4.003339
  52 H     1.0000    0     1.008    4.588741   -0.552757    2.343085
  53 H     1.0000    0     1.008   11.937065    4.078170    3.068084
* core charge reduced due to ECP

--------------------------------
INTERNAL COORDINATES (ANGSTROEM)
--------------------------------
 C      0   0   0     0.000000000000     0.00000000     0.00000000
 C      1   0   0     1.522786813774     0.00000000     0.00000000
 C      2   1   0     1.536333006808   112.22386092     0.00000000
 C      3   2   1     1.497694604808   111.24166242    65.01041745
 C      4   3   2     1.388697330935   121.22079057   259.03192908
 C      5   4   3     1.380772029091   120.12639590   178.40727006
 F      6   5   4     1.345687605479   118.02615717   180.85522297
 C      6   5   4     1.394971983362   122.98306248   359.37384301
 C      8   6   5     1.470763101367   122.39123810   180.15866298
 C      9   8   6     1.392303193732   120.35435023   315.14104673
 C     10   9   8     1.380666193760   119.63662498   179.88702630
 F     11  10   9     1.335776019627   118.35948857   178.32925657
 C     11  10   9     1.395462371001   122.41255558     0.55753196
 C     13  11  10     1.493103318422   120.81630167   181.32436593
 O     14  13  11     1.198025628684   124.46290023    39.16146340
 O     14  13  11     1.344689849417   109.50206936   218.30570455
 C     16  14  13     1.376692401614   123.52817135   181.90058385
 C     17  16  14     1.387085689122   124.36414848   332.28592459
 C     18  17  16     1.382914600968   118.44009238   182.22447242
 F     19  18  17     1.345580164456   117.38508911   180.88809492
 C     19  18  17     1.393255993841   123.00845484   359.79749325
 C     21  19  18     1.470847446474   122.19930365   180.44758386
 C     22  21  19     1.392192431631   121.05048325   317.34692281
 C     23  22  21     1.381639892477   120.01654604   180.62268751
 F     24  23  22     1.339280386508   119.39368319   179.39560178
 C     24  23  22     1.390862017584   121.27764315   359.82193093
 F     26  24  23     1.338247984375   120.94710967   179.96854669
 C     26  24  23     1.390833810497   118.19025151     0.00000000
 F     28  26  24     1.340596902982   119.47560954   180.17347479
 C     28  26  24     1.380879541834   121.17609006     0.24150906
 C     21  19  18     1.395519275074   116.91278177     0.14548473
 C     31  21  19     1.377869402189   121.43468809     0.22477424
 C     13  11  10     1.394632380572   116.49249986   359.55411553
 F     33  13  11     1.340309427018   119.48066048   181.81378632
 C     33  13  11     1.379959161246   122.40598514     0.00000000
 C      8   6   5     1.395805679794   115.28694767     0.32382511
 F     36   8   6     1.346598096526   118.92163820   178.66769242
 C     36   8   6     1.379356688305   122.98705639     0.26231327
 H      1   2   3     1.087633933574   110.76792281   298.64284775
 H      1   2   3     1.087683764975   110.58699365    58.96948071
 H      1   2   3     1.087088822339   110.28217058   178.69017334
 H      2   1   3     1.091547312270   109.49908407   121.46066478
 H      2   1   3     1.091407642285   109.38572039   239.51485908
 H      3   2   1     1.090609041153   109.10283272   303.60899324
 H      3   2   1     1.091606356890   108.77026982   185.51263489
 H      5   4   3     1.078511888090   121.02777032   358.39955910
 H     10   9   8     1.077981445635   121.40825433   359.50230802
 H     18  17  16     1.077458305586   122.16439669     2.95980481
 H     23  22  21     1.077748333767   121.44264989     0.12105372
 H     30  28  26     1.078066062435   118.77318733   181.04946756
 H     31  21  19     1.078664926102   118.99867953   178.91065867
 H     32  31  21     1.077965306947   121.28389258   179.62615768
 H     35  33  13     1.078045465634   118.95345274   180.83238642
 H     38  36   8     1.078686410078   118.94204330   179.17585184

---------------------------
INTERNAL COORDINATES (A.U.)
---------------------------
 C      0   0   0     0.000000000000     0.00000000     0.00000000
 C      1   0   0     2.877650038380     0.00000000     0.00000000
 C      2   1   0     2.903248633371   112.22386092     0.00000000
 C      3   2   1     2.830232635339   111.24166242    65.01041745
 C      4   3   2     2.624257638375   121.22079057   259.03192908
 C      5   4   3     2.609280988361   120.12639590   178.40727006
 F      6   5   4     2.542981036168   118.02615717   180.85522297
 C      6   5   4     2.636115013048   122.98306248   359.37384301
 C      8   6   5     2.779339469460   122.39123810   180.15866298
 C      9   8   6     2.631071731537   120.35435023   315.14104673
 C     10   9   8     2.609080988569   119.63662498   179.88702630
 F     11  10   9     2.524250853355   118.35948857   178.32925657
 C     11  10   9     2.637041711384   122.41255558     0.55753196
 C     13  11  10     2.821556361466   120.81630167   181.32436593
 O     14  13  11     2.263940339632   124.46290023    39.16146340
 O     14  13  11     2.541095550461   109.50206936   218.30570455
 C     16  14  13     2.601571609702   123.52817135   181.90058385
 C     17  16  14     2.621212076721   124.36414848   332.28592459
 C     18  17  16     2.613329862431   118.44009238   182.22447242
 F     19  18  17     2.542778002059   117.38508911   180.88809492
 C     19  18  17     2.632872262803   123.00845484   359.79749325
 C     21  19  18     2.779498858613   122.19930365   180.44758386
 C     22  21  19     2.630862421501   121.05048325   317.34692281
 C     23  22  21     2.610921012482   120.01654604   180.62268751
 F     24  23  22     2.530873147033   119.39368319   179.39560178
 C     24  23  22     2.628348303308   121.27764315   359.82193093
 F     26  24  23     2.528922189741   120.94710967   179.96854669
 C     26  24  23     2.628294999637   118.19025151     0.00000000
 F     28  26  24     2.533361002618   119.47560954   180.17347479
 C     28  26  24     2.609484158002   121.17609006     0.24150906
 C     21  19  18     2.637149244498   116.91278177     0.14548473
 C     31  21  19     2.603795818446   121.43468809     0.22477424
 C     13  11  10     2.635473256780   116.49249986   359.55411553
 F     33  13  11     2.532817751776   119.48066048   181.81378632
 C     33  13  11     2.607744890751   122.40598514     0.00000000
 C      8   6   5     2.637690470983   115.28694767     0.32382511
 F     36   8   6     2.544701614893   118.92163820   178.66769242
 C     36   8   6     2.606606381889   122.98705639     0.26231327
 H      1   2   3     2.055330268415   110.76792281   298.64284775
 H      1   2   3     2.055424436116   110.58699365    58.96948071
 H      1   2   3     2.054300157467   110.28217058   178.69017334
 H      2   1   3     2.062725482409   109.49908407   121.46066478
 H      2   1   3     2.062461544387   109.38572039   239.51485908
 H      3   2   1     2.060952406958   109.10283272   303.60899324
 H      3   2   1     2.062837060569   108.77026982   185.51263489
 H      5   4   3     2.038092100669   121.02777032   358.39955910
 H     10   9   8     2.037089709699   121.40825433   359.50230802
 H     18  17  16     2.036101118277   122.16439669     2.95980481
 H     23  22  21     2.036649192110   121.44264989     0.12105372
 H     30  28  26     2.037249612278   118.77318733   181.04946756
 H     31  21  19     2.038381300599   118.99867953   178.91065867
 H     32  31  21     2.037059211998   121.28389258   179.62615768
 H     35  33  13     2.037210689963   118.95345274   180.83238642
 H     38  36   8     2.038421899431   118.94204330   179.17585184

---------------------
BASIS SET INFORMATION
---------------------
There are 4 groups of distinct atoms

 Group   1 Type C   : 6s6p2d contracted to 2s2p1d pattern {42/42/2}
 Group   2 Type F   : 6s6p2d contracted to 2s2p1d pattern {42/42/2}
 Group   3 Type O   : 6s6p2d contracted to 2s2p1d pattern {42/42/2}
 Group   4 Type H   : 8s2p contracted to 2s1p pattern {53/2}

Atom   0C    basis set group =>   1
Atom   1C    basis set group =>   1
Atom   2C    basis set group =>   1
Atom   3C    basis set group =>   1
Atom   4C    basis set group =>   1
Atom   5C    basis set group =>   1
Atom   6F    basis set group =>   2
Atom   7C    basis set group =>   1
Atom   8C    basis set group =>   1
Atom   9C    basis set group =>   1
Atom  10C    basis set group =>   1
Atom  11F    basis set group =>   2
Atom  12C    basis set group =>   1
Atom  13C    basis set group =>   1
Atom  14O    basis set group =>   3
Atom  15O    basis set group =>   3
Atom  16C    basis set group =>   1
Atom  17C    basis set group =>   1
Atom  18C    basis set group =>   1
Atom  19F    basis set group =>   2
Atom  20C    basis set group =>   1
Atom  21C    basis set group =>   1
Atom  22C    basis set group =>   1
Atom  23C    basis set group =>   1
Atom  24F    basis set group =>   2
Atom  25C    basis set group =>   1
Atom  26F    basis set group =>   2
Atom  27C    basis set group =>   1
Atom  28F    basis set group =>   2
Atom  29C    basis set group =>   1
Atom  30C    basis set group =>   1
Atom  31C    basis set group =>   1
Atom  32C    basis set group =>   1
Atom  33F    basis set group =>   2
Atom  34C    basis set group =>   1
Atom  35C    basis set group =>   1
Atom  36F    basis set group =>   2
Atom  37C    basis set group =>   1
Atom  38H    basis set group =>   4
Atom  39H    basis set group =>   4
Atom  40H    basis set group =>   4
Atom  41H    basis set group =>   4
Atom  42H    basis set group =>   4
Atom  43H    basis set group =>   4
Atom  44H    basis set group =>   4
Atom  45H    basis set group =>   4
Atom  46H    basis set group =>   4
Atom  47H    basis set group =>   4
Atom  48H    basis set group =>   4
Atom  49H    basis set group =>   4
Atom  50H    basis set group =>   4
Atom  51H    basis set group =>   4
Atom  52H    basis set group =>   4
Atom  53H    basis set group =>   4
---------------------------------
AUXILIARY/J BASIS SET INFORMATION
---------------------------------
There are 4 groups of distinct atoms

 Group   1 Type C   : 12s5p4d2f1g contracted to 6s4p3d1f1g pattern {711111/2111/211/2/1}
 Group   2 Type F   : 12s5p4d2f1g contracted to 6s4p3d1f1g pattern {711111/2111/211/2/1}
 Group   3 Type O   : 12s5p4d2f1g contracted to 6s4p3d1f1g pattern {711111/2111/211/2/1}
 Group   4 Type H   : 5s2p1d contracted to 3s1p1d pattern {311/2/1}

Atom   0C    basis set group =>   1
Atom   1C    basis set group =>   1
Atom   2C    basis set group =>   1
Atom   3C    basis set group =>   1
Atom   4C    basis set group =>   1
Atom   5C    basis set group =>   1
Atom   6F    basis set group =>   2
Atom   7C    basis set group =>   1
Atom   8C    basis set group =>   1
Atom   9C    basis set group =>   1
Atom  10C    basis set group =>   1
Atom  11F    basis set group =>   2
Atom  12C    basis set group =>   1
Atom  13C    basis set group =>   1
Atom  14O    basis set group =>   3
Atom  15O    basis set group =>   3
Atom  16C    basis set group =>   1
Atom  17C    basis set group =>   1
Atom  18C    basis set group =>   1
Atom  19F    basis set group =>   2
Atom  20C    basis set group =>   1
Atom  21C    basis set group =>   1
Atom  22C    basis set group =>   1
Atom  23C    basis set group =>   1
Atom  24F    basis set group =>   2
Atom  25C    basis set group =>   1
Atom  26F    basis set group =>   2
Atom  27C    basis set group =>   1
Atom  28F    basis set group =>   2
Atom  29C    basis set group =>   1
Atom  30C    basis set group =>   1
Atom  31C    basis set group =>   1
Atom  32C    basis set group =>   1
Atom  33F    basis set group =>   2
Atom  34C    basis set group =>   1
Atom  35C    basis set group =>   1
Atom  36F    basis set group =>   2
Atom  37C    basis set group =>   1
Atom  38H    basis set group =>   4
Atom  39H    basis set group =>   4
Atom  40H    basis set group =>   4
Atom  41H    basis set group =>   4
Atom  42H    basis set group =>   4
Atom  43H    basis set group =>   4
Atom  44H    basis set group =>   4
Atom  45H    basis set group =>   4
Atom  46H    basis set group =>   4
Atom  47H    basis set group =>   4
Atom  48H    basis set group =>   4
Atom  49H    basis set group =>   4
Atom  50H    basis set group =>   4
Atom  51H    basis set group =>   4
Atom  52H    basis set group =>   4
Atom  53H    basis set group =>   4
-------------------------
ECP PARAMETER INFORMATION
-------------------------

 Group 1, Type C  ECP vDZP-ECP (replacing 2 core electrons, lmax=3)
 Group 2, Type F  ECP vDZP-ECP (replacing 2 core electrons, lmax=3)
 Group 3, Type O  ECP vDZP-ECP (replacing 2 core electrons, lmax=3)

Atom   0C    ECP group =>   1
Atom   1C    ECP group =>   1
Atom   2C    ECP group =>   1
Atom   3C    ECP group =>   1
Atom   4C    ECP group =>   1
Atom   5C    ECP group =>   1
Atom   6F    ECP group =>   2
Atom   7C    ECP group =>   1
Atom   8C    ECP group =>   1
Atom   9C    ECP group =>   1
Atom  10C    ECP group =>   1
Atom  11F    ECP group =>   2
Atom  12C    ECP group =>   1
Atom  13C    ECP group =>   1
Atom  14O    ECP group =>   3
Atom  15O    ECP group =>   3
Atom  16C    ECP group =>   1
Atom  17C    ECP group =>   1
Atom  18C    ECP group =>   1
Atom  19F    ECP group =>   2
Atom  20C    ECP group =>   1
Atom  21C    ECP group =>   1
Atom  22C    ECP group =>   1
Atom  23C    ECP group =>   1
Atom  24F    ECP group =>   2
Atom  25C    ECP group =>   1
Atom  26F    ECP group =>   2
Atom  27C    ECP group =>   1
Atom  28F    ECP group =>   2
Atom  29C    ECP group =>   1
Atom  30C    ECP group =>   1
Atom  31C    ECP group =>   1
Atom  32C    ECP group =>   1
Atom  33F    ECP group =>   2
Atom  34C    ECP group =>   1
Atom  35C    ECP group =>   1
Atom  36F    ECP group =>   2
Atom  37C    ECP group =>   1



           ************************************************************
           *        Program running with 4 parallel MPI-processes     *
           *              working on a common directory               *
           ************************************************************
------------------------------------------------------------------------------
                             ORCA STARTUP CALCULATIONS
                           -- RI-GTO INTEGRALS CHOSEN --
------------------------------------------------------------------------------
------------------------------------------------------------------------------
                   ___                                                        
                  /   \      - P O W E R E D   B Y -                         
                 /     \                                                     
                 |  |  |   _    _      __       _____    __    __             
                 |  |  |  | |  | |    /  \     |  _  \  |  |  /  |          
                  \  \/   | |  | |   /    \    | | | |  |  | /  /          
                 / \  \   | |__| |  /  /\  \   | |_| |  |  |/  /          
                |  |  |   |  __  | /  /__\  \  |    /   |      \           
                |  |  |   | |  | | |   __   |  |    \   |  |\   \          
                \     /   | |  | | |  |  |  |  | |\  \  |  | \   \       
                 \___/    |_|  |_| |__|  |__|  |_| \__\ |__|  \__/        
                                                                              
                      - O R C A' S   B I G   F R I E N D -                    
                                      &                                       
                       - I N T E G R A L  F E E D E R -                       
                                                                              
 v1 FN, 2020, v2 2021, v3 2022-2024                                           
------------------------------------------------------------------------------


----------------------
SHARK INTEGRAL PACKAGE
----------------------

Number of atoms                             ...     54
Number of basis functions                   ...    574
Number of shells                            ...    238
Maximum angular momentum                    ...      2
Integral batch strategy                     ... SHARK/LIBINT Hybrid
RI-J (if used) integral strategy            ... SPLIT-RIJ (Revised 2003 algorithm where possible)
Printlevel                                  ...      1
Contraction scheme used                     ... SEGMENTED contraction
Prescreening option                         ... SCHWARTZ
   Thresh                                   ... 1.000e-10
   Tcut                                     ... 1.000e-11
   Tpresel                                  ... 1.000e-11 
Coulomb Range Separation                    ... NOT USED
Exchange Range Separation                   ... Long Range
   Mu parameter                             ... 3.000e-01
   Scaling (regular/separated)              ... 1.670e-01 8.330e-01
Robust (split-)RI terms used:
  metric    (central integrals)             ... YES
  density   (r.h.s.  integrals)             ... YES
  potential (l.h.s.  integrals)             ... YES
Multipole approximations                    ... NOT USED
Finite Nucleus Model                        ... NOT USED
CABS basis                                  ... NOT available
Auxiliary Coulomb fitting basis             ... AVAILABLE
   # of basis functions in Aux-J            ...   2038
   # of shells in Aux-J                     ...    650
   Maximum angular momentum in Aux-J        ...      4
Auxiliary J/K fitting basis                 ... NOT available
Auxiliary Correlation fitting basis         ... NOT available
Auxiliary 'external' fitting basis          ... NOT available

done (  0.0 sec) Dimension = 238
   => SHARK Basis and OBASIS are compatible. Storing Pre-screening
Shell pair information
Shell pair cut-off parameter TPreSel        ...   1.0e-11
Total number of shell pairs                 ...     28441
Shell pairs after pre-screening             ...     18561
Total number of primitive shell pairs       ...    240572
Primitive shell pairs kept                  ...    102768
          la=0 lb=0:   3934 shell pairs
          la=1 lb=0:   6617 shell pairs
          la=1 lb=1:   2874 shell pairs
          la=2 lb=0:   2565 shell pairs
          la=2 lb=1:   2153 shell pairs
          la=2 lb=2:    418 shell pairs

Checking whether 4 symmetric matrices of dimension 574 fit in memory
:Max Core in MB      =   4000.00
 MB in use           =     37.14
 MB left             =   3962.86
 MB needed           =      5.04
 Data fit in memory  = YES
done (  0.4 sec)
Calculating Nuclear repulsion               ... done (  0.0 sec) ENN=   1935.424286196090 Eh

Diagonalization of the overlap matrix:
Smallest eigenvalue                        ... 2.258e-04
Time for diagonalization                   ...    0.061 sec
Threshold for overlap eigenvalues          ... 1.000e-07
Number of eigenvalues below threshold      ... 0
Time for construction of square roots      ...    0.031 sec
Total time needed                          ...    0.104 sec

-------------------
DFT GRID GENERATION
-------------------

General Integration Accuracy     IntAcc      ... 4.388
Radial Grid Type                 RadialGrid  ... OptM3 with GC (2021)
Angular Grid (max. ang.)         AngularGrid ... 4 (Lebedev-302)
Angular grid pruning method      GridPruning ... 4 (adaptive)
Weight generation scheme         WeightScheme... mBecke (2022)
Basis function cutoff            BFCut       ... 1.0000e-10
Integration weight cutoff        WCut        ... 1.0000e-14
Partially contracted basis set               ... off
Rotationally invariant grid construction     ... off
Angular grids for H and He will be reduced by one unit

Total number of grid points                  ...   278777
Total number of batches                      ...     4378
Average number of points per batch           ...       63
Average number of grid points per atom       ...     5163

--------------------
COSX GRID GENERATION
--------------------

GRIDX 1
-------
General Integration Accuracy     IntAcc      ... 3.816
Radial Grid Type                 RadialGrid  ... OptM3 with GC (2021)
Angular Grid (max. ang.)         AngularGrid ... 1 (Lebedev-50)
Angular grid pruning method      GridPruning ... 4 (adaptive)
Weight generation scheme         WeightScheme... mBecke (2022)
Basis function cutoff            BFCut       ... 1.0000e-10
Integration weight cutoff        WCut        ... 1.0000e-14
Partially contracted basis set               ... on
Rotationally invariant grid construction     ... off
Angular grids for H and He will be reduced by one unit

Total number of grid points                  ...    35326
Total number of batches                      ...      305
Average number of points per batch           ...      115
Average number of grid points per atom       ...      654
UseSFitting                                  ... on

GRIDX 2
-------
General Integration Accuracy     IntAcc      ... 4.020
Radial Grid Type                 RadialGrid  ... OptM3 with GC (2021)
Angular Grid (max. ang.)         AngularGrid ... 2 (Lebedev-110)
Angular grid pruning method      GridPruning ... 4 (adaptive)
Weight generation scheme         WeightScheme... mBecke (2022)
Basis function cutoff            BFCut       ... 1.0000e-10
Integration weight cutoff        WCut        ... 1.0000e-14
Partially contracted basis set               ... on
Rotationally invariant grid construction     ... off
Angular grids for H and He will be reduced by one unit

Total number of grid points                  ...    78959
Total number of batches                      ...      641
Average number of points per batch           ...      123
Average number of grid points per atom       ...     1462
UseSFitting                                  ... on

GRIDX 3
-------
General Integration Accuracy     IntAcc      ... 4.338
Radial Grid Type                 RadialGrid  ... OptM3 with GC (2021)
Angular Grid (max. ang.)         AngularGrid ... 3 (Lebedev-194)
Angular grid pruning method      GridPruning ... 4 (adaptive)
Weight generation scheme         WeightScheme... mBecke (2022)
Basis function cutoff            BFCut       ... 1.0000e-10
Integration weight cutoff        WCut        ... 1.0000e-14
Partially contracted basis set               ... on
Rotationally invariant grid construction     ... off
Angular grids for H and He will be reduced by one unit

Total number of grid points                  ...   173464
Total number of batches                      ...     1382
Average number of points per batch           ...      125
Average number of grid points per atom       ...     3212
UseSFitting                                  ... on
Grids setup in   7.0 sec
Initializing property integral containers    ... done (  0.0 sec)

SHARK setup successfully completed in  10.1 seconds

Maximum memory used throughout the entire STARTUP-calculation: 101.5 MB


           ************************************************************
           *        Program running with 4 parallel MPI-processes     *
           *              working on a common directory               *
           ************************************************************
-------------------------------------------------------------------------------
                                 ORCA GUESS
                   Start orbitals & Density for SCF / CASSCF
-------------------------------------------------------------------------------

------------
SCF SETTINGS
------------
Hamiltonian:
 Density Functional     Method          .... DFT(GTOs)
 Exchange Functional    Exchange        .... WB97X-V
 Correlation Functional Correlation     .... WB97X-V
 Gradients option       PostSCFGGA      .... off
 Hybrid DFT is turned on
   Fraction HF Exchange ScalHFX         ....  0.167000
   Scaling of DF-GGA-X  ScalDFX         ....  0.000000
   Scaling of DF-GGA-C  ScalDFC         ....  1.000000
   Scaling of DF-LDA-C  ScalLDAC        ....  1.000000
   Perturbative correction              ....  0.000000
 Long-range corrected/Screened/Range-Separated Hybrid DFT is turned on
   Amount of maximum screened exact exchange              ....  0.833000
   Range separation parameter mu (erf(mu*r12)/r12)        ....  0.300000
   NL short-range parameter             ....  6.000000
   NL long-range parameter              ....  0.010000
 RI-approximation to the Coulomb term is turned on
   Number of AuxJ basis functions       .... 2038
   RIJ-COSX (HFX calculated with COS-X)).... on


General Settings:
 Integral files         IntName         .... conf_007
 Hartree-Fock type      HFTyp           .... RHF
 Total Charge           Charge          ....    0
 Multiplicity           Mult            ....    1
 Number of Electrons    NEL             ....  196
 Basis Dimension        Dim             ....  574
 Nuclear Repulsion      ENuc            ....   1935.4242861961 Eh

Convergence Acceleration:
 AO-DIIS                CNVDIIS         .... on
   Start iteration      DIISMaxIt       ....    12
   Startup error        DIISStart       ....  0.200000
   # of expansion vecs  DIISMaxEq       ....     5
   Bias factor          DIISBfac        ....   1.050
   Max. coefficient     DIISMaxC        ....  10.000
 MO-DIIS                CNVKDIIS        .... off
 Trust-Rad. Augm. Hess. CNVTRAH         .... auto
   Auto Start mean grad. ratio tolernc. ....  1.125000
   Auto Start start iteration           ....    50
   Auto Start num. interpolation iter.  ....    10
   Max. Number of Micro iterations      ....    24
   Max. Number of Macro iterations      .... Maxiter - #DIIS iter
   Number of Davidson start vectors     ....     2
   Converg. threshold    (grad. norm)   ....   5.000e-05
   Grad. Scal. Fac. for Micro threshold ....   0.100
   Minimum threshold for Micro iter.    ....   1.000e-02
   NR start threshold (gradient norm)   ....   1.000e-04
   Initial trust radius                 ....   0.400
   Minimum AH scaling param. (alpha)    ....   1.000
   Maximum AH scaling param. (alpha)    .... 1000.000
   Quad. conv. algorithm                .... NR
   White noise on init. David. guess    .... on
   Maximum white noise                  ....   0.010
   Pseudo random numbers                .... off
   Inactive MOs                         .... canonical
   Orbital update algorithm             .... Taylor
   Preconditioner                       .... Diag
   Full preconditioner red. dimension   ....   250
 SOSCF                 CNVSOSCF           .... on
   Start iteration     SOSCFMaxIt         ....   150
   Startup grad/error  SOSCFStart         ....  0.003300
   Hessian update      SOSCFHessUp        .... L-BFGS
   Autom. constraints  SOSCFAutoConstrain .... off
 Level Shifting         CNVShift        .... on
   Level shift para.    LevelShift      ....    0.2500
   Turn off err/grad.   ShiftErr        ....    0.0010
 Zerner damping         CNVZerner       .... off
 Static damping         CNVDamp         .... on
   Fraction old density DampFac         ....    0.7000
   Max. Damping (<1)    DampMax         ....    0.9800
   Min. Damping (>=0)   DampMin         ....    0.0000
   Turn off err/grad.   DampErr         ....    0.1000

SCF Procedure:
 Maximum # iterations   MaxIter         ....   125
 SCF integral mode      SCFMode         .... Direct
   Integral package                     .... SHARK and LIBINT hybrid scheme
 Reset frequency        DirectResetFreq ....    20
 Integral Threshold     Thresh          ....  1.000e-10 Eh
 Primitive CutOff       TCut            ....  1.000e-11 Eh

Convergence Tolerance:
 Convergence Check Mode ConvCheckMode   .... Total+1el-Energy
 Convergence forced     ConvForced      .... 0
 Energy Change          TolE            ....  1.000e-06 Eh
 1-El. energy change                    ....  1.000e-03 Eh
 Orbital Gradient       TolG            ....  5.000e-05
 Orbital Rotation angle TolX            ....  5.000e-05
 DIIS Error             TolErr          ....  1.000e-06

------------------------------
INITIAL GUESS: MODEL POTENTIAL
------------------------------
Loading Hartree-Fock densities                     ... done
Atomic calculation to generate a density for atom 0 (C  with ECP)
  Multiplicity assumed   :    1
  Atomic configuration   : 1s2 2s2 2p2 
  Number of open shells  : 1
  Command: /opt/apps/pkg/applications/orca/orca_6_1_0_linux_x86-64_shared_openmpi418/orca conf_007_atom6.inp "" > conf_007_atom6.out
Returned from the atomic calculation with res=0
Atomic calculation to generate a density for atom 6 (F  with ECP)
  Multiplicity assumed   :    2
  Atomic configuration   : 1s2 2s2 2p5 
  Number of open shells  : 1
  Command: /opt/apps/pkg/applications/orca/orca_6_1_0_linux_x86-64_shared_openmpi418/orca conf_007_atom9.inp "" > conf_007_atom9.out
Returned from the atomic calculation with res=0
Atomic calculation to generate a density for atom 14 (O  with ECP)
  Multiplicity assumed   :    3
  Atomic configuration   : 1s2 2s2 2p4 
  Number of open shells  : 1
  Command: /opt/apps/pkg/applications/orca/orca_6_1_0_linux_x86-64_shared_openmpi418/orca conf_007_atom8.inp "" > conf_007_atom8.out
Returned from the atomic calculation with res=0
Calculating cut-offs                               ... done
Initializing the effective Hamiltonian             ... done
Setting up the integral package (SHARK)            ... done
done (   1.9 sec)
done (   1.0 sec)
Mapping shells                                     ... done
Starting the XC term evaluation                    ... done (   0.6 sec)
  promolecular density results
     # of electrons  =    271.978290004
     EX              =   -168.151130757
     EC              =    -11.745850884
     EX+EC           =   -179.896981640
Transforming the Hamiltonian                       ... done (   0.1 sec)
done (   0.1 sec)
Back transforming the eigenvectors                 ... done (   0.0 sec)
done
                      ------------------
                      INITIAL GUESS DONE (   5.0 sec)
                      ------------------
             **** ENERGY FILE WAS UPDATED (conf_007.en.tmp) ****
Finished Guess after   6.8 sec
Maximum memory used throughout the entire GUESS-calculation: 56.0 MB


           ************************************************************
           *        Program running with 4 parallel MPI-processes     *
           *              working on a common directory               *
           ************************************************************

-------------------------------------------------------------------------------------------
                                      ORCA LEAN-SCF
                              memory conserving SCF solver
-------------------------------------------------------------------------------------------

----------------------------------------D-I-I-S--------------------------------------------
Iteration    Energy (Eh)           Delta-E    RMSDP     MaxDP     DIISErr   Damp  Time(sec)
-------------------------------------------------------------------------------------------
               ***  Starting incremental Fock matrix formation  ***
    1    -394.3739117310553866     0.00e+00  5.81e-03  9.44e-02  2.09e-01  0.700  85.0
    2    -394.9450386157366211    -5.71e-01  4.21e-03  6.70e-02  1.10e-01  0.700  33.4
                               ***Turning on AO-DIIS***
    3    -395.2094376409488632    -2.64e-01  2.43e-03  3.46e-02  5.71e-02  0.700  42.5
    4    -395.3664223987436799    -1.57e-01  5.36e-03  7.18e-02  3.32e-02  0.000  31.3
    5    -395.7085733698133936    -3.42e-01  4.50e-04  6.98e-03  6.66e-03  0.000  33.8
    6    -395.7103930156483784    -1.82e-03  2.34e-04  4.50e-03  3.32e-03  0.000  27.9
                              *** Initializing SOSCF ***
---------------------------------------S-O-S-C-F--------------------------------------
Iteration    Energy (Eh)           Delta-E    RMSDP     MaxDP     MaxGrad    Time(sec)
--------------------------------------------------------------------------------------
    7    -395.7109011858458416    -5.08e-04  1.21e-04  3.12e-03  2.18e-03    25.6
               *** Restarting incremental Fock matrix formation ***
    8    -395.7110311732355967    -1.30e-04  7.91e-05  1.60e-03  1.25e-03    80.2
    9    -395.7110836111694425    -5.24e-05  9.58e-05  2.55e-03  6.14e-04    49.7
   10    -395.7110972483308160    -1.36e-05  3.05e-05  1.42e-03  2.14e-04    49.2
   11    -395.7111035451882799    -6.30e-06  1.06e-05  2.80e-04  5.39e-05    42.7
   12    -395.7111036846902152    -1.40e-07  4.87e-06  9.90e-05  4.46e-05    33.3
                 **** Energy Check signals convergence ****

               *****************************************************
               *                     SUCCESS                       *
               *           SCF CONVERGED AFTER  12 CYCLES          *
               *****************************************************

 done (  154.026 sec)
Old exchange energy                            :    -40.322943717 Eh
New exchange energy                            :    -40.323073500 Eh
Exchange energy change after final integration :     -0.000129783 Eh
Total energy after final integration           :   -395.711233763 Eh
             **** ENERGY FILE WAS UPDATED (conf_007.en.tmp) ****

----------------
TOTAL SCF ENERGY
----------------

Total Energy       :       -395.71123376302864 Eh          -10767.85010 eV

Components:
Nuclear Repulsion  :       1935.42428619608995 Eh           52665.57229 eV
Electronic Energy  :      -2331.13539017596122 Eh          -63433.41886 eV
One Electron Energy:      -4486.90613590606154 Eh         -122094.92314 eV
Two Electron Energy:       2155.77074573010032 Eh           58661.50428 eV

Virial components:
Potential Energy   :       -709.37863952900386 Eh          -19303.17414 eV
Kinetic Energy     :        313.66740576597522 Eh            8535.32404 eV
Virial Ratio       :          2.26156312861613

DFT components:
N(Alpha)           :       98.000028710687 electrons
N(Beta)            :       98.000028710687 electrons
N(Total)           :      196.000057421374 electrons
E(X)               :      -51.262369193180 Eh       
E(C)               :       -7.928934778749 Eh       
E(XC)              :      -59.191303971930 Eh       

---------------
SCF CONVERGENCE
---------------

  Last Energy change         ...    1.3950e-07  Tolerance :   1.0000e-06
  Last MAX-Density change    ...    9.8952e-05  Tolerance :   1.0000e-05
  Last RMS-Density change    ...    4.8723e-06  Tolerance :   1.0000e-06
  Last DIIS Error            ...    2.1822e-03  Tolerance :   1.0000e-06
  Last Orbital Gradient      ...    4.4562e-05  Tolerance :   5.0000e-05
  Last Orbital Rotation      ...    1.7448e-04  Tolerance :   5.0000e-05


----------------
ORBITAL ENERGIES
----------------

  NO   OCC          E(Eh)            E(eV) 
   0   2.0000      -1.387385       -37.7527 
   1   2.0000      -1.382610       -37.6227 
   2   2.0000      -1.380584       -37.5676 
   3   2.0000      -1.380129       -37.5552 
   4   2.0000      -1.379790       -37.5460 
   5   2.0000      -1.376323       -37.4517 
   6   2.0000      -1.370854       -37.3028 
   7   2.0000      -1.367021       -37.1985 
   8   2.0000      -1.278827       -34.7987 
   9   2.0000      -1.184673       -32.2366 
  10   2.0000      -1.060593       -28.8602 
  11   2.0000      -1.052751       -28.6468 
  12   2.0000      -1.042351       -28.3638 
  13   2.0000      -1.030290       -28.0356 
  14   2.0000      -0.986147       -26.8344 
  15   2.0000      -0.963030       -26.2054 
  16   2.0000      -0.949153       -25.8278 
  17   2.0000      -0.922501       -25.1025 
  18   2.0000      -0.921266       -25.0689 
  19   2.0000      -0.917883       -24.9769 
  20   2.0000      -0.917466       -24.9655 
  21   2.0000      -0.915450       -24.9107 
  22   2.0000      -0.898344       -24.4452 
  23   2.0000      -0.856853       -23.3161 
  24   2.0000      -0.835040       -22.7226 
  25   2.0000      -0.803284       -21.8585 
  26   2.0000      -0.796065       -21.6620 
  27   2.0000      -0.793372       -21.5887 
  28   2.0000      -0.780994       -21.2519 
  29   2.0000      -0.778410       -21.1816 
  30   2.0000      -0.770703       -20.9719 
  31   2.0000      -0.760793       -20.7022 
  32   2.0000      -0.738516       -20.0960 
  33   2.0000      -0.734153       -19.9773 
  34   2.0000      -0.713501       -19.4154 
  35   2.0000      -0.709674       -19.3112 
  36   2.0000      -0.694384       -18.8952 
  37   2.0000      -0.689965       -18.7749 
  38   2.0000      -0.685162       -18.6442 
  39   2.0000      -0.681748       -18.5513 
  40   2.0000      -0.678534       -18.4638 
  41   2.0000      -0.670905       -18.2563 
  42   2.0000      -0.663695       -18.0601 
  43   2.0000      -0.644418       -17.5355 
  44   2.0000      -0.643020       -17.4975 
  45   2.0000      -0.640058       -17.4169 
  46   2.0000      -0.639489       -17.4014 
  47   2.0000      -0.637920       -17.3587 
  48   2.0000      -0.634257       -17.2590 
  49   2.0000      -0.631112       -17.1734 
  50   2.0000      -0.622638       -16.9428 
  51   2.0000      -0.619289       -16.8517 
  52   2.0000      -0.616197       -16.7676 
  53   2.0000      -0.615367       -16.7450 
  54   2.0000      -0.611524       -16.6404 
  55   2.0000      -0.608684       -16.5631 
  56   2.0000      -0.606025       -16.4908 
  57   2.0000      -0.604458       -16.4482 
  58   2.0000      -0.601860       -16.3774 
  59   2.0000      -0.596740       -16.2381 
  60   2.0000      -0.589019       -16.0280 
  61   2.0000      -0.588320       -16.0090 
  62   2.0000      -0.585737       -15.9387 
  63   2.0000      -0.580383       -15.7930 
  64   2.0000      -0.572227       -15.5711 
  65   2.0000      -0.567455       -15.4412 
  66   2.0000      -0.561279       -15.2732 
  67   2.0000      -0.553936       -15.0734 
  68   2.0000      -0.549060       -14.9407 
  69   2.0000      -0.544271       -14.8104 
  70   2.0000      -0.538551       -14.6547 
  71   2.0000      -0.533859       -14.5270 
  72   2.0000      -0.526725       -14.3329 
  73   2.0000      -0.524543       -14.2735 
  74   2.0000      -0.518961       -14.1216 
  75   2.0000      -0.517342       -14.0776 
  76   2.0000      -0.512377       -13.9425 
  77   2.0000      -0.509191       -13.8558 
  78   2.0000      -0.502592       -13.6762 
  79   2.0000      -0.499747       -13.5988 
  80   2.0000      -0.496565       -13.5122 
  81   2.0000      -0.494618       -13.4592 
  82   2.0000      -0.492012       -13.3883 
  83   2.0000      -0.488690       -13.2979 
  84   2.0000      -0.485861       -13.2210 
  85   2.0000      -0.465623       -12.6702 
  86   2.0000      -0.463784       -12.6202 
  87   2.0000      -0.462326       -12.5805 
  88   2.0000      -0.456919       -12.4334 
  89   2.0000      -0.422641       -11.5007 
  90   2.0000      -0.401914       -10.9366 
  91   2.0000      -0.388501       -10.5717 
  92   2.0000      -0.370997       -10.0953 
  93   2.0000      -0.370132       -10.0718 
  94   2.0000      -0.369676       -10.0594 
  95   2.0000      -0.368049       -10.0151 
  96   2.0000      -0.352285        -9.5862 
  97   2.0000      -0.335720        -9.1354 
  98   0.0000      -0.011332        -0.3084 
  99   0.0000       0.016642         0.4529 
 100   0.0000       0.045171         1.2292 
 101   0.0000       0.046747         1.2720 
 102   0.0000       0.047506         1.2927 
 103   0.0000       0.048782         1.3274 
 104   0.0000       0.049674         1.3517 
 105   0.0000       0.073960         2.0126 
 106   0.0000       0.078082         2.1247 
 107   0.0000       0.080955         2.2029 
 108   0.0000       0.085981         2.3397 
*Only the first 10 virtual orbitals were printed.

                    ********************************
                    * MULLIKEN POPULATION ANALYSIS *
                    ********************************

-----------------------
MULLIKEN ATOMIC CHARGES
-----------------------
   0 C :   -0.059353
   1 C :   -0.066028
   2 C :   -0.046485
   3 C :   -0.041389
   4 C :    0.026748
   5 C :    0.199318
   6 F :   -0.226203
   7 C :   -0.131176
   8 C :   -0.084847
   9 C :    0.065597
  10 C :    0.226119
  11 F :   -0.204507
  12 C :   -0.154949
  13 C :    0.285063
  14 O :   -0.278900
  15 O :   -0.221176
  16 C :    0.063303
  17 C :    0.049325
  18 C :    0.176990
  19 F :   -0.228751
  20 C :   -0.112788
  21 C :   -0.078043
  22 C :    0.061496
  23 C :    0.171162
  24 F :   -0.214923
  25 C :    0.193180
  26 F :   -0.209540
  27 C :    0.173314
  28 F :   -0.217388
  29 C :    0.026121
  30 C :    0.045118
  31 C :    0.045467
  32 C :    0.241028
  33 F :   -0.216372
  34 C :    0.069572
  35 C :    0.200373
  36 F :   -0.228091
  37 C :    0.036232
  38 H :    0.043488
  39 H :    0.027341
  40 H :    0.036725
  41 H :    0.037211
  42 H :    0.037804
  43 H :    0.039248
  44 H :    0.050922
  45 H :    0.035148
  46 H :    0.050188
  47 H :    0.064040
  48 H :    0.047859
  49 H :    0.043645
  50 H :    0.037696
  51 H :    0.032910
  52 H :    0.048684
  53 H :    0.032476
Sum of atomic charges:   -0.0000000

--------------------------------
MULLIKEN REDUCED ORBITAL CHARGES
--------------------------------
  0 C s       :     0.936586  s :     0.936586
      pz      :     1.033499  p :     3.049046
      px      :     1.047343
      py      :     0.968203
      dz2     :     0.013516  d :     0.073721
      dxz     :     0.013141
      dyz     :     0.016526
      dx2y2   :     0.015959
      dxy     :     0.014578

  1 C s       :     0.998103  s :     0.998103
      pz      :     0.995572  p :     2.966348
      px      :     1.035488
      py      :     0.935288
      dz2     :     0.021395  d :     0.101577
      dxz     :     0.016706
      dyz     :     0.020184
      dx2y2   :     0.025299
      dxy     :     0.017992

  2 C s       :     0.964961  s :     0.964961
      pz      :     1.035252  p :     2.981713
      px      :     0.923887
      py      :     1.022574
      dz2     :     0.020188  d :     0.099811
      dxz     :     0.022132
      dyz     :     0.014294
      dx2y2   :     0.027500
      dxy     :     0.015696

  3 C s       :     1.042483  s :     1.042483
      pz      :     0.964326  p :     2.870323
      px      :     0.974376
      py      :     0.931621
      dz2     :     0.029992  d :     0.128583
      dxz     :     0.034966
      dyz     :     0.018712
      dx2y2   :     0.020667
      dxy     :     0.024245

  4 C s       :     0.961976  s :     0.961976
      pz      :     0.992522  p :     2.924070
      px      :     0.937544
      py      :     0.994005
      dz2     :     0.018948  d :     0.087206
      dxz     :     0.025931
      dyz     :     0.010078
      dx2y2   :     0.014259
      dxy     :     0.017990

  5 C s       :     1.059739  s :     1.059739
      pz      :     0.741681  p :     2.555795
      px      :     0.961960
      py      :     0.852154
      dz2     :     0.045070  d :     0.185148
      dxz     :     0.050396
      dyz     :     0.029745
      dx2y2   :     0.025147
      dxy     :     0.034790

  6 F s       :     1.886159  s :     1.886159
      pz      :     1.598501  p :     5.316400
      px      :     1.906821
      py      :     1.811078
      dz2     :     0.007435  d :     0.023644
      dxz     :     0.005016
      dyz     :     0.006921
      dx2y2   :     0.002240
      dxy     :     0.002032

  7 C s       :     0.990161  s :     0.990161
      pz      :     0.981508  p :     3.030016
      px      :     0.975698
      py      :     1.072810
      dz2     :     0.023018  d :     0.110999
      dxz     :     0.031139
      dyz     :     0.015140
      dx2y2   :     0.017801
      dxy     :     0.023900

  8 C s       :     1.015232  s :     1.015232
      pz      :     1.005760  p :     2.939036
      px      :     0.975679
      py      :     0.957597
      dz2     :     0.031891  d :     0.130579
      dxz     :     0.032697
      dyz     :     0.022170
      dx2y2   :     0.020204
      dxy     :     0.023618

  9 C s       :     0.970486  s :     0.970486
      pz      :     0.964677  p :     2.877079
      px      :     0.915136
      py      :     0.997267
      dz2     :     0.019580  d :     0.086838
      dxz     :     0.023051
      dyz     :     0.013679
      dx2y2   :     0.012968
      dxy     :     0.017561

 10 C s       :     1.064885  s :     1.064885
      pz      :     0.727241  p :     2.519461
      px      :     0.896900
      py      :     0.895321
      dz2     :     0.046626  d :     0.189534
      dxz     :     0.053224
      dyz     :     0.034203
      dx2y2   :     0.024825
      dxy     :     0.030656

 11 F s       :     1.884207  s :     1.884207
      pz      :     1.563788  p :     5.296010
      px      :     1.849806
      py      :     1.882416
      dz2     :     0.007984  d :     0.024290
      dxz     :     0.006935
      dyz     :     0.005763
      dx2y2   :     0.001545
      dxy     :     0.002063

 12 C s       :     1.011293  s :     1.011293
      pz      :     0.991355  p :     3.044723
      px      :     0.924636
      py      :     1.128732
      dz2     :     0.022989  d :     0.098934
      dxz     :     0.027171
      dyz     :     0.017539
      dx2y2   :     0.015467
      dxy     :     0.015769

 13 C s       :     1.078853  s :     1.078853
      pz      :     0.774958  p :     2.356216
      px      :     0.885851
      py      :     0.695407
      dz2     :     0.083465  d :     0.279868
      dxz     :     0.074696
      dyz     :     0.051855
      dx2y2   :     0.033711
      dxy     :     0.036141

 14 O s       :     1.762191  s :     1.762191
      pz      :     1.390974  p :     4.477887
      px      :     1.709782
      py      :     1.377131
      dz2     :     0.012065  d :     0.038823
      dxz     :     0.008662
      dyz     :     0.010914
      dx2y2   :     0.003920
      dxy     :     0.003262

 15 O s       :     1.650974  s :     1.650974
      pz      :     1.513410  p :     4.527329
      px      :     1.296749
      py      :     1.717170
      dz2     :     0.011473  d :     0.042874
      dxz     :     0.009065
      dyz     :     0.006123
      dx2y2   :     0.008061
      dxy     :     0.008151

 16 C s       :     1.040288  s :     1.040288
      pz      :     1.041467  p :     2.725227
      px      :     0.726312
      py      :     0.957449
      dz2     :     0.035528  d :     0.171183
      dxz     :     0.048384
      dyz     :     0.026319
      dx2y2   :     0.024714
      dxy     :     0.036238

 17 C s       :     0.968617  s :     0.968617
      pz      :     0.991366  p :     2.897971
      px      :     0.918889
      py      :     0.987715
      dz2     :     0.020318  d :     0.084088
      dxz     :     0.022353
      dyz     :     0.010718
      dx2y2   :     0.010512
      dxy     :     0.020187

 18 C s       :     1.060233  s :     1.060233
      pz      :     0.793633  p :     2.578718
      px      :     0.851526
      py      :     0.933559
      dz2     :     0.045857  d :     0.184059
      dxz     :     0.052429
      dyz     :     0.033738
      dx2y2   :     0.020053
      dxy     :     0.031981

 19 F s       :     1.886012  s :     1.886012
      pz      :     1.656067  p :     5.319120
      px      :     1.750194
      py      :     1.912859
      dz2     :     0.005485  d :     0.023619
      dxz     :     0.008327
      dyz     :     0.004206
      dx2y2   :     0.002675
      dxy     :     0.002927

 20 C s       :     0.993087  s :     0.993087
      pz      :     0.990601  p :     3.001488
      px      :     0.978864
      py      :     1.032022
      dz2     :     0.027347  d :     0.118214
      dxz     :     0.033411
      dyz     :     0.021869
      dx2y2   :     0.015241
      dxy     :     0.020345

 21 C s       :     0.999396  s :     0.999396
      pz      :     0.962866  p :     2.950292
      px      :     0.981366
      py      :     1.006060
      dz2     :     0.026153  d :     0.128356
      dxz     :     0.026745
      dyz     :     0.013461
      dx2y2   :     0.030441
      dxy     :     0.031556

 22 C s       :     0.973981  s :     0.973981
      pz      :     0.986804  p :     2.875797
      px      :     0.896465
      py      :     0.992528
      dz2     :     0.012093  d :     0.088726
      dxz     :     0.021593
      dyz     :     0.011784
      dx2y2   :     0.022320
      dxy     :     0.020936

 23 C s       :     1.058243  s :     1.058243
      pz      :     0.898991  p :     2.587166
      px      :     0.829574
      py      :     0.858602
      dz2     :     0.036511  d :     0.183429
      dxz     :     0.039684
      dyz     :     0.021250
      dx2y2   :     0.044356
      dxy     :     0.041629

 24 F s       :     1.887959  s :     1.887959
      pz      :     1.821439  p :     5.303047
      px      :     1.712764
      py      :     1.768845
      dz2     :     0.003619  d :     0.023917
      dxz     :     0.005533
      dyz     :     0.003623
      dx2y2   :     0.004654
      dxy     :     0.006487

 25 C s       :     1.045741  s :     1.045741
      pz      :     0.967453  p :     2.585912
      px      :     0.660940
      py      :     0.957519
      dz2     :     0.029012  d :     0.175168
      dxz     :     0.047972
      dyz     :     0.011813
      dx2y2   :     0.036680
      dxy     :     0.049690

 26 F s       :     1.889009  s :     1.889009
      pz      :     1.905992  p :     5.296109
      px      :     1.467397
      py      :     1.922719
      dz2     :     0.002969  d :     0.024423
      dxz     :     0.006864
      dyz     :     0.000441
      dx2y2   :     0.007789
      dxy     :     0.006359

 27 C s       :     1.058232  s :     1.058232
      pz      :     0.823177  p :     2.585573
      px      :     0.956563
      py      :     0.805834
      dz2     :     0.037839  d :     0.182880
      dxz     :     0.042894
      dyz     :     0.022873
      dx2y2   :     0.035202
      dxy     :     0.044072

 28 F s       :     1.888330  s :     1.888330
      pz      :     1.700443  p :     5.305207
      px      :     1.915894
      py      :     1.688869
      dz2     :     0.005663  d :     0.023851
      dxz     :     0.003241
      dyz     :     0.007448
      dx2y2   :     0.003998
      dxy     :     0.003500

 29 C s       :     0.968665  s :     0.968665
      pz      :     0.961171  p :     2.916289
      px      :     0.942849
      py      :     1.012270
      dz2     :     0.015221  d :     0.088925
      dxz     :     0.022641
      dyz     :     0.009634
      dx2y2   :     0.018274
      dxy     :     0.023155

 30 C s       :     0.981958  s :     0.981958
      pz      :     0.989295  p :     2.874852
      px      :     0.937376
      py      :     0.948181
      dz2     :     0.023579  d :     0.098072
      dxz     :     0.028982
      dyz     :     0.009448
      dx2y2   :     0.012376
      dxy     :     0.023686

 31 C s       :     0.976254  s :     0.976254
      pz      :     0.955647  p :     2.888734
      px      :     0.957604
      py      :     0.975483
      dz2     :     0.018238  d :     0.089545
      dxz     :     0.032005
      dyz     :     0.013801
      dx2y2   :     0.010269
      dxy     :     0.015232

 32 C s       :     1.058313  s :     1.058313
      pz      :     0.778371  p :     2.512513
      px      :     0.881620
      py      :     0.852522
      dz2     :     0.046284  d :     0.188146
      dxz     :     0.049781
      dyz     :     0.032450
      dx2y2   :     0.026051
      dxy     :     0.033580

 33 F s       :     1.884715  s :     1.884715
      pz      :     1.653065  p :     5.307703
      px      :     1.828476
      py      :     1.826162
      dz2     :     0.005885  d :     0.023954
      dxz     :     0.006468
      dyz     :     0.005695
      dx2y2   :     0.002866
      dxy     :     0.003041

 34 C s       :     0.969074  s :     0.969074
      pz      :     0.981564  p :     2.874352
      px      :     0.900262
      py      :     0.992525
      dz2     :     0.021196  d :     0.087002
      dxz     :     0.021967
      dyz     :     0.010694
      dx2y2   :     0.015338
      dxy     :     0.017806

 35 C s       :     1.059415  s :     1.059415
      pz      :     0.805247  p :     2.555046
      px      :     0.838862
      py      :     0.910937
      dz2     :     0.044530  d :     0.185166
      dxz     :     0.049564
      dyz     :     0.026912
      dx2y2   :     0.028893
      dxy     :     0.035267

 36 F s       :     1.886232  s :     1.886232
      pz      :     1.681686  p :     5.318271
      px      :     1.757558
      py      :     1.879026
      dz2     :     0.005490  d :     0.023587
      dxz     :     0.007449
      dyz     :     0.004123
      dx2y2   :     0.002864
      dxy     :     0.003662

 37 C s       :     0.960165  s :     0.960165
      pz      :     0.980953  p :     2.916721
      px      :     0.915549
      py      :     1.020219
      dz2     :     0.020127  d :     0.086881
      dxz     :     0.020676
      dyz     :     0.011549
      dx2y2   :     0.015055
      dxy     :     0.019474

 38 H s       :     0.910418  s :     0.910418
      pz      :     0.011167  p :     0.046094
      px      :     0.022797
      py      :     0.012131

 39 H s       :     0.927957  s :     0.927957
      pz      :     0.020386  p :     0.044702
      px      :     0.013826
      py      :     0.010491

 40 H s       :     0.918145  s :     0.918145
      pz      :     0.015178  p :     0.045131
      px      :     0.013093
      py      :     0.016859

 41 H s       :     0.919285  s :     0.919285
      pz      :     0.019751  p :     0.043503
      px      :     0.013105
      py      :     0.010648

 42 H s       :     0.918585  s :     0.918585
      pz      :     0.010330  p :     0.043611
      px      :     0.021734
      py      :     0.011547

 43 H s       :     0.916809  s :     0.916809
      pz      :     0.020906  p :     0.043943
      px      :     0.013265
      py      :     0.009773

 44 H s       :     0.904561  s :     0.904561
      pz      :     0.012448  p :     0.044516
      px      :     0.010344
      py      :     0.021724

 45 H s       :     0.914003  s :     0.914003
      pz      :     0.019871  p :     0.050849
      px      :     0.016078
      py      :     0.014899

 46 H s       :     0.897623  s :     0.897623
      pz      :     0.021041  p :     0.052189
      px      :     0.014623
      py      :     0.016526

 47 H s       :     0.880628  s :     0.880628
      pz      :     0.027512  p :     0.055332
      px      :     0.013543
      py      :     0.014277

 48 H s       :     0.899820  s :     0.899820
      pz      :     0.020873  p :     0.052322
      px      :     0.011084
      py      :     0.020364

 49 H s       :     0.903856  s :     0.903856
      pz      :     0.016094  p :     0.052499
      px      :     0.018089
      py      :     0.018316

 50 H s       :     0.910849  s :     0.910849
      pz      :     0.024935  p :     0.051456
      px      :     0.011968
      py      :     0.014552

 51 H s       :     0.915988  s :     0.915988
      pz      :     0.018609  p :     0.051101
      px      :     0.017822
      py      :     0.014670

 52 H s       :     0.899052  s :     0.899052
      pz      :     0.024130  p :     0.052264
      px      :     0.013410
      py      :     0.014724

 53 H s       :     0.916322  s :     0.916322
      pz      :     0.022740  p :     0.051202
      px      :     0.011005
      py      :     0.017457



                     *******************************
                     * LOEWDIN POPULATION ANALYSIS *
                     *******************************

----------------------
LOEWDIN ATOMIC CHARGES
----------------------
   0 C :   -0.109582
   1 C :   -0.080070
   2 C :   -0.072099
   3 C :   -0.018298
   4 C :   -0.031569
   5 C :    0.048318
   6 F :   -0.065333
   7 C :   -0.038152
   8 C :   -0.016993
   9 C :   -0.014905
  10 C :    0.056681
  11 F :   -0.049446
  12 C :   -0.030688
  13 C :   -0.026693
  14 O :   -0.095378
  15 O :    0.034509
  16 C :   -0.008856
  17 C :   -0.010371
  18 C :    0.045467
  19 F :   -0.066802
  20 C :   -0.039832
  21 C :   -0.031654
  22 C :   -0.012829
  23 C :    0.038684
  24 F :   -0.060360
  25 C :    0.038318
  26 F :   -0.056026
  27 C :    0.037261
  28 F :   -0.062687
  29 C :   -0.021845
  30 C :   -0.017474
  31 C :   -0.028957
  32 C :    0.052606
  33 F :   -0.059901
  34 C :   -0.016967
  35 C :    0.047936
  36 F :   -0.067081
  37 C :   -0.031092
  38 H :    0.042711
  39 H :    0.041540
  40 H :    0.046653
  41 H :    0.044297
  42 H :    0.047364
  43 H :    0.053518
  44 H :    0.056227
  45 H :    0.053533
  46 H :    0.059429
  47 H :    0.057439
  48 H :    0.059005
  49 H :    0.056620
  50 H :    0.054952
  51 H :    0.055819
  52 H :    0.058636
  53 H :    0.054416

-------------------------------
LOEWDIN REDUCED ORBITAL CHARGES
-------------------------------
  0 C s       :     0.765723  s :     0.765723
      pz      :     1.050767  p :     3.098455
      px      :     1.066875
      py      :     0.980814
      dz2     :     0.044811  d :     0.245403
      dxz     :     0.043429
      dyz     :     0.054421
      dx2y2   :     0.051673
      dxy     :     0.051069

[...]
  28 F       0.082161      0.059698     -0.074262      0.045630     -0.045866     -0.033236      0.064357     -0.030551      0.092547     -0.086506
  29 C       0.593824     -0.124112      0.035029     -0.010933     -0.171937     -0.103276      0.128653     -0.104396      0.152988     -0.199583
  30 C      -0.393853      0.051252      0.144455     -0.012204      0.307971     -0.029652     -0.018035      0.277260     -0.088539      0.019835
  31 C       0.493524      0.035206      0.593665      0.098921     -0.194608     -0.021329     -0.000630     -0.227450     -0.033544     -0.079047
  32 C      -0.474792     -0.117956      0.250634     -0.100120      0.019574     -0.056307     -0.115372      0.195308     -0.002339      0.004052
  33 F      -0.016568      0.094556     -0.019373     -0.026231      0.026524     -0.010056      0.074186     -0.111642     -0.017198     -0.082811
  34 C       0.631709     -0.033702      0.044720     -0.021885      0.211075     -0.021673      0.125829     -0.219750     -0.027461     -0.147106
  35 C      -0.524258      0.098163      0.249458     -0.050583     -0.083424     -0.063586      0.111440      0.152896      0.094855      0.091919
  36 F      -0.038908     -0.076194     -0.066772      0.014692      0.059400      0.029060     -0.057656     -0.120897     -0.056423      0.046346
  37 C       0.413519     -0.054019     -0.030363      0.203999      0.279575      0.037426     -0.066462     -0.230173     -0.051237      0.060299
  38 H      -0.068608      0.014088      0.004865      0.006965     -0.000556     -0.020085      0.000575     -0.028141     -0.008019      0.007578
  39 H       0.037153      0.020340     -0.032770      0.017301     -0.008710      0.007544      0.002645      0.005991     -0.017319      0.009688
  40 H       0.036872     -0.020683      0.058472      0.001985      0.021871      0.009555      0.000824      0.003643      0.010982     -0.003470
  41 H      -0.058899     -0.008418      0.019890     -0.009029      0.005564     -0.016182     -0.002255     -0.014980      0.015362     -0.005819
  42 H       0.048216      0.011118     -0.028977     -0.003101     -0.009902      0.021577     -0.002325      0.024086     -0.000364      0.000257
  43 H       0.027264     -0.032448     -0.037387     -0.006687     -0.010596      0.000802      0.002520      0.001755     -0.016628     -0.006154
  44 H       0.002438      0.035698      0.045858      0.015852      0.015211     -0.005977      0.003059     -0.006688      0.008680      0.013704
  45 H       0.035170     -0.011424     -0.029969     -0.005400     -0.009763      0.009377     -0.000536      0.010331     -0.009925     -0.006071
  46 H       0.037213      0.017921     -0.035405      0.010847     -0.010736      0.010077     -0.000846      0.009489     -0.010335      0.007814
  47 H       0.017451     -0.000081     -0.052976      0.003504     -0.017345      0.005300      0.000017      0.007065     -0.015195     -0.000204
  48 H       0.024769      0.032021     -0.030754      0.014499     -0.012133      0.006082     -0.000982      0.004942     -0.012358      0.012862
  49 H       0.042996     -0.029522      0.013926     -0.012632      0.003377      0.010770     -0.000842      0.012138      0.006135     -0.011435
  50 H      -0.024731      0.001144      0.053721      0.000985      0.023331     -0.005659      0.000646     -0.004023      0.014223     -0.001372
  51 H       0.035140      0.000780      0.044147      0.001076      0.011152      0.009563      0.000178      0.008417      0.009892     -0.001008
  52 H       0.036743     -0.008525      0.040885     -0.002764      0.015259      0.007462     -0.000161      0.009291      0.011443     -0.004682
  53 H       0.026107      0.019397      0.034512      0.008752      0.014015      0.006284      0.001213      0.005451      0.010567      0.009067

 MBIS THIRD RADIAL MOMENT (A.U.):
  ATOM      <r^3>
   0 C   43.728976
   1 C   41.130762
   2 C   41.779154
   3 C   33.347474
   4 C   41.316240
   5 C   29.752960
   6 F   18.075146
   7 C   38.862126
   8 C   32.192407
   9 C   40.437132
  10 C   28.764449
  11 F   18.088564
  12 C   41.942370
  13 C   22.264567
  14 O   25.733706
  15 O   23.924528
  16 C   29.509239
  17 C   41.283019
  18 C   29.755654
  19 F   18.096575
  20 C   37.144171
  21 C   33.504585
  22 C   39.665329
  23 C   31.609083
  24 F   18.088841
  25 C   33.828452
  26 F   17.901121
  27 C   31.655774
  28 F   18.109818
  29 C   39.956567
  30 C   36.584292
  31 C   39.786507
  32 C   28.926799
  33 F   18.105318
  34 C   40.528343
  35 C   29.818966
  36 F   18.094790
  37 C   41.040081
  38 H    2.219262
  39 H    2.421067
  40 H    2.384516
  41 H    2.301567
  42 H    2.344587
  43 H    2.214575
  44 H    2.238840
  45 H    2.005414
  46 H    1.907029
  47 H    1.791073
  48 H    1.923467
  49 H    1.973343
  50 H    2.132891
  51 H    2.043590
  52 H    1.915038
  53 H    2.009142

-------------------------
RESP CHARGES GENERATION
-------------------------
Number of atoms                    ...           54
Number of "pure atoms"             ...           54
Grid spacing                       ...     0.300000
Point Cut-Off                      ...     2.800000
Van-der-Waals Radii                ...        COSMO
Total charge                       ...            0
Penalty function                   ... hyperbolic
Penalty function wa                ... 0.000500
Penalty function wb                ... 0.100000
Dipole moment constraint           ...        FALSE
Equivalent atom charge constraint  ...        FALSE

Grid generated                     ...      0.0 sec
Grid points                        ...        28103
Potential calculated               ...     13.6 sec
RespFile stored                    ...           ok

Iter     dqmax
--------------

0     0.927739
1     0.039449
2     0.004770
3     0.000604
4     0.000077
5     0.000010
6     0.000001
7     0.000000

Charges calculated                 ...      2.2 sec

RESP Charges            
--------------------------------
  0   C   :      -0.364026
  1   C   :       0.257517
  2   C   :      -0.271976
  3   C   :       0.273224
  4   C   :      -0.509848
  5   C   :       0.417699
  6   F   :      -0.204000
  7   C   :      -0.304325
  8   C   :       0.425356
  9   C   :      -0.530064
 10   C   :       0.533415
 11   F   :      -0.212927
 12   C   :      -0.584677
 13   C   :       0.920867
 14   O   :      -0.529026
 15   O   :      -0.393105
 16   C   :       0.424531
 17   C   :      -0.517348
 18   C   :       0.365262
 19   F   :      -0.198517
 20   C   :       0.008120
 21   C   :       0.148397
 22   C   :      -0.442695
 23   C   :       0.340904
 24   F   :      -0.188387
 25   C   :       0.081146
 26   F   :      -0.148206
 27   C   :       0.304589
 28   F   :      -0.182989
 29   C   :      -0.417038
 30   C   :      -0.216090
 31   C   :      -0.319193
 32   C   :       0.511062
 33   F   :      -0.217505
 34   C   :      -0.515962
 35   C   :       0.351406
 36   F   :      -0.201223
 37   C   :      -0.402720
 38   H   :       0.104023
 39   H   :       0.092198
 40   H   :       0.079886
 41   H   :      -0.022802
 42   H   :      -0.023467
 43   H   :       0.105896
 44   H   :       0.072010
 45   H   :       0.234243
 46   H   :       0.249194
 47   H   :       0.276498
 48   H   :       0.244727
 49   H   :       0.232405
 50   H   :       0.188875
 51   H   :       0.212845
 52   H   :       0.249235
 53   H   :       0.212586
--------------------------------
Total charge:    -0.000000
--------------------------------

RESP charges calculated...

Timings:
Grid generation                 ...        0.030 sec (=   0.000 min)
Potential calculation           ...       13.563 sec (=   0.226 min)
Fit to the potential            ...        2.170 sec (=   0.036 min)
------------------------------------------------------------------------------

-------
TIMINGS
-------

Total SCF time: 0 days 0 hours 14 min 22 sec 

Total time                  ....     862.411 sec
Sum of individual times     ....     834.822 sec  ( 96.8%)

SCF preparation             ....       2.137 sec  (  0.2%)
Fock matrix formation       ....     684.602 sec  ( 79.4%)
  Startup                   ....       0.050 sec  (  0.0% of F)
  Split-RI-J                ....      50.429 sec  (  7.4% of F)
  Chain of spheres X        ....     639.996 sec  ( 93.5% of F)
  XC integration            ....      20.190 sec  (  2.9% of F)
    XC Preparation          ....       0.000 sec  (  0.0% of XC)
    Basis function eval.    ....       5.751 sec  ( 28.5% of XC)
    Density eval.           ....       4.959 sec  ( 24.6% of XC)
    XC-Functional eval.     ....       1.360 sec  (  6.7% of XC)
    XC-Potential eval.      ....       6.032 sec  ( 29.9% of XC)
Diagonalization             ....       0.000 sec  (  0.0%)
Density matrix formation    ....       0.628 sec  (  0.1%)
Total Energy calculation    ....       0.221 sec  (  0.0%)
Population analysis         ....     143.882 sec  ( 16.7%)
Orbital Transformation      ....       0.334 sec  (  0.0%)
Orbital Orthonormalization  ....       0.000 sec  (  0.0%)
DIIS solution               ....       1.975 sec  (  0.2%)
SOSCF solution              ....       1.044 sec  (  0.1%)
Finished LeanSCF after 862.5 sec

Maximum memory used throughout the entire LEANSCF-calculation: 118.4 MB


-------------------------------------------------------------------------------
                          DFT DISPERSION CORRECTION                            
                                                                               
                                DFTD4 V3.4.0                                   
-------------------------------------------------------------------------------
The wB97X-3c composite method is recognized
Using three-body term ABC
Active option DFTDOPT                   ...         5   

-------------------------   ----------------
Dispersion correction           -0.088444878
-------------------------   ----------------


-------------------------   --------------------
FINAL SINGLE POINT ENERGY      -395.799678641398
-------------------------   --------------------



           ************************************************************
           *        Program running with 4 parallel MPI-processes     *
           *              working on a common directory               *
           ************************************************************

------------------------------------------------------------------------------
                              ORCA PROPERTY CALCULATIONS
------------------------------------------------------------------------------

GBWName                                 ... conf_007.gbw
Number of atoms                         ...     54
Number of basis functions               ...    574
Max core memory                         ...   4000 MB

Electric properties:
Dipole moment                           ... YES
Quadrupole moment                       ...  NO
Static polarizability (Dipole/Dipole)   ...  NO
Static polarizability (Dipole/Quad.)    ...  NO
Static polarizability (Quad./Quad.)     ...  NO
Static polarizability (Velocity)        ...  NO
Static hyperpolarizability              ...  NO

Atomic electric properties:
Dipole moment                           ...  NO
Quadrupole moment                       ...  NO
Static polarizability                   ...  NO

Choice of electric origin               ... Center of mass
Position of electric origin             ...    -2.838355    -0.166388    -0.132046

General magnetic properties:
Magnetizability                         ...  NO

EPR properties:
g-Tensor (aka g-matrix)                 ...  NO
Zero-Field splitting spin-orbit         ...  NO
Zero-field splitting spin-spin          ...  NO
Hyperfine couplings                     ...  NO (   0 nuclei)
Quadrupole couplings                    ...  NO (   0 nuclei)
Contact density                         ...  NO (   0 nuclei)

NMR properties:
Chemical shifts                         ...  NO (   0 nuclei)
Spin-rotation constants                 ...  NO (   0 nuclei)
Spin-spin couplings                     ...  NO (   0 nuclei,    0 pairs)

Choice of magnetic origin               ... GIAO
Position of magnetic origin             ...     0.000000     0.000000     0.000000

Properties with geometric perturbations:
SCF Hessian                             ...  NO
IR spectrum                             ...  NO
VCD spectrum                            ...  NO
X-ray spectroscopy properties:
SCF XES/XAS/RIXS spectra                ...  NO

SCF SOC stabilization energy            ...  NO
Diagonal Born-Oppenheimer correction    ...  NO

-------------
DIPOLE MOMENT
-------------

Method             : SCF
Type of density    : Electron Density
Multiplicity       :   1
Irrep              :   0
Energy             :  -395.7112337630286447 Eh
Basis              : AO
                                X                 Y                 Z
Electronic contribution:    -66.959180325      -1.290427577      -3.785305863
Nuclear contribution   :     70.843752446       2.026563433       4.747197445
                        -----------------------------------------
Total Dipole Moment    :      3.884572121       0.736135857       0.961891583
                        -----------------------------------------
Magnitude (a.u.)       :      4.069033298
Magnitude (Debye)      :     10.342660699



--------------------
Rotational spectrum 
--------------------
 
Rotational constants in cm-1:             0.011947             0.000776             0.000748 
Rotational constants in MHz :           358.156500            23.251451            22.434972 

Dipole components along the rotational axes: 
x,y,z [a.u.] :     3.839499     1.220276     0.571142 
x,y,z [Debye]:     9.759232     3.101695     1.451727 

 

Dipole moment calculation done in   0.0 sec 

Maximum memory used throughout the entire PROP-calculation: 58.2 MB

--------------------------------
SUGGESTED CITATIONS FOR THIS RUN
--------------------------------

Below you find a list of papers that are relevant to this ORCA run
We neither can nor want to force you to cite these papers, but we appreciate if you do
You receive ORCA, which is the product of decades of hard work by many enthusiastic individuals, for free
The only thing we kindly ask in return is that you cite our papers,
We deeply appreciate it, if you show your appreciation for ORCA by not just citing the generic ORCA reference.

Please note that relegating all ORCA citations to the supporting information does *not* help us.
SI sections are not indexed - citations you put there will not count into any citation statistics
But we need these citations in order to attract the funding resources that allow us to do what we are doing

Therefore, if you are a happy ORCA user, please consider citing a few of the papers listed below in the main body of your paper

In addition to the list printed below, the program has created the file conf_007.bibtex that contains the list in bibtex format
You can import this file easily into all common literature databanks and citation aid programs


List of essential papers. We consider these as the minimum necessary citations

  1. Mueller, M.; Hansen, A.; Grimme, S.
     wB97X-3c: A composite range-separated hybrid DFT method with a molecule-optimized polarized valence double-zeta basis set
     J. Chem. Phys. 2023 158 , 014103
     doi.org/10.1063/5.0133026
  2. Neese, F.
     Software update: the ORCA program system, version 6.0
     WIRES Comput. Molec. Sci. 2025 15(1), e70019
     doi.org/10.1002/wcms.7019

List of papers to cite with high priority. The work reported in these papers was absolutely
necessary for this run to complete.
Our perspective: the developers of density functionals and basis sets usually get cited in chemistry papers
Good! But without the algorithms to do something with them, the functionals or basis sets would not do anything.
Hence, in our opinion, the algorithm design and method developments papers are equally worthy of getting cited

  1. Neese, F.
     An improvement of the resolution of the identity approximation for the formation of the Coulomb matrix
     J. Comp. Chem. 2003 24(14), 1740-1747
     doi.org/10.1002/jcc.10318
  2. Neese, F.; Wennmohs, F.; Hansen, A.; Becker, U.
     Efficient, approximate and parallel Hartree-Fock and hybrid DFT calculations. A 'chain-of-spheres' algorithm for the Hartree-Fock exchange
     Chem. Phys. 2009 356(1-3), 98-109
     doi.org/10.1016/j.chemphys.2008.10.036
  3. Caldeweyher, E.; Bannwarth, C.; Grimme, S.
     Extension of the D3 dispersion coefficient model
     J. Chem. Phys. 2017 147 , 034112
     doi.org/10.1063/1.4993215
  4. Caldeweyher, E.; Ehlert, S.; Hansen, A.; Neugebauer, H.; Spicher, S.; Bannwarth, C.; Grimme, S.
     A generally applicable atomic-charge dependent London dispersion correction
     J. Chem. Phys. 2019 150 , 154122
     doi.org/10.1063/1.5090222
  5. Caldeweyher, E.; Mewes, J.; Ehlert, S.; Grimme, S.
     Extension and evaluation of the D4 London-dispersion model for periodic systems
     Phys. Chem. Chem. Phys. 2020 22(16), 8499-8512
     doi.org/10.1039/D0CP00502A
  6. Helmich-Paris, B.; de Souza, B.; Neese, F.; Izsák, R.
     An improved chain of spheres for exchange algorithm
     J. Chem. Phys. 2021 155(10), 104109
     doi.org/10.1063/5.0058766
  7. Neese, F.
     The SHARK Integral Generation and Digestion System
     J. Comp. Chem. 2022 44(3), 381
     doi.org/10.1002/jcc.26942
  8. Wittmann, L.; Gordiy, I.; Friede, M.; Helmich-Paris, B.; Grimme, S.; Hansen, A.; Bursch, M.
     Extension of the D3 and D4 London Dispersion Corrections to the full Actinides Series
     Phys. Chem. Chem. Phys. 2024 26(32), 21379-21394
     doi.org/10.1039/D4CP01514B

List of suggested additional citations. These are papers that are important in the 'surrounding' of 
of this run, or papers that preceded the highly important papers. If you like your results we are grateful for a citation.

  1. Izsak, R.; Neese, F.
     An overlap fitted chain of spheres exchange method
     J. Chem. Phys. 2011 135 , 144105
     doi.org/10.1063/1.3646921
  2. Izsak, R.; Hansen, A.; Neese, F.
     The resolution of identity and chain of spheres approximations for the LPNO-CCSD singles Fock term
     Molec. Phys. 2012 110 , 2413-2417
     doi.org/10.1080/00268976.2012.687466
  3. Neese, F.
     The ORCA program system
     WIRES Comput. Molec. Sci. 2012 2(1), 73-78
     doi.org/10.1002/wcms.81
  4. Izsak, R.; Neese, F.; Klopper, W.
     Robust fitting techniques in the chain of spheres approximation to the Fock exchange: The role of the complementary space
     J. Chem. Phys. 2013 139 , 
     doi.org/10.1063/1.4819264
  5. Neese, F.
     Software update: the ORCA program system, version 4.0
     WIRES Comput. Molec. Sci. 2018 8(1), 1-6
     doi.org/10.1002/wcms.1327
  6. Neese, F.; Wennmohs, F.; Becker, U.; Riplinger, C.
     The ORCA quantum chemistry program package
     J. Chem. Phys. 2020 152(22), 224108
     doi.org/10.1063/5.0004608
  7. Neese, F.
     Software update: The ORCA program system—Version 5.0
     WIRES Comput. Molec. Sci. 2022 12(1), e1606
     doi.org/10.1002/wcms.1606

List of optional additional citations

  1. Neese, F.
     Approximate second-order SCF convergence for spin unrestricted wavefunctions
     Chem. Phys. Lett. 2000 325(1-3), 93-98
     doi.org/10.1016/s0009-2614(00)00662-x

Timings for individual modules:

Sum of individual times          ...      884.405 sec (=  14.740 min)
Startup calculation              ...       12.182 sec (=   0.203 min)   1.4 %
SCF iterations                   ...      870.119 sec (=  14.502 min)  98.4 %
Property calculations            ...        2.104 sec (=   0.035 min)   0.2 %
                             ****ORCA TERMINATED NORMALLY****
TOTAL RUN TIME: 0 days 0 hours 14 minutes 46 seconds 582 msec
