Loading openmpi/5.0.6/gcc-14.2.0
  Loading requirement: gcc/14.2.0

                                 *****************
                                 * O   R   C   A *
                                 *****************

                                            #,                                       
                                            ###                                      
                                            ####                                     
                                            #####                                    
                                            ######                                   
                                           ########,                                 
                                     ,,################,,,,,                         
                               ,,#################################,,                 
                          ,,##########################################,,             
                       ,#########################################, ''#####,          
                    ,#############################################,,   '####,        
                  ,##################################################,,,,####,       
                ,###########''''           ''''###############################       
              ,#####''   ,,,,##########,,,,          '''####'''          '####       
            ,##' ,,,,###########################,,,                        '##       
           ' ,,###''''                  '''############,,,                           
         ,,##''                                '''############,,,,        ,,,,,,###''
      ,#''                                            '''#######################'''  
     '                                                          ''''####''''         
             ,#######,   #######,   ,#######,      ##                                
            ,#'     '#,  ##    ##  ,#'     '#,    #''#        ,####,    ,#,          
            ##       ##  ##   ,#'  ##            #'  '#       #'       ,# #          
            ##       ##  #######   ##           ,######,      #####,      #          
            '#,     ,#'  ##    ##  '#,     ,#' ,#      #,     #,   #      #          
             '#######'   ##     ##  '#######'  #'      '#     '####' #    #          



                #########################################################
                #                        -***-                          #
                #          Department of theory and spectroscopy        #
                #                                                       #
                #                      Frank Neese                      #
                #                                                       #
                #     Directorship, Architecture, Infrastructure        #
                #                    SHARK, DRIVERS                     #
                #        Core code/Algorithms in most modules           #
                #                                                       #
                #        Max Planck Institute fuer Kohlenforschung      #
                #                Kaiser Wilhelm Platz 1                 #
                #                 D-45470 Muelheim/Ruhr                 #
                #                      Germany                          #
                #                                                       #
                #                  All rights reserved                  #
                #                        -***-                          #
                #########################################################


                         Program Version 6.1.0  -  RELEASE   -
                                (GIT: $679e74b$)
                          ($2025-06-10 18:02:51 +0200$)


 With contributions from (in alphabetic order):
[Max-Planck-Institut fuer Kohlenforschung]                               
  Daniel Aravena         : Magnetic Suceptibility                        
  Michael Atanasov       : Ab Initio Ligand Field Theory (pilot matlab implementation)
  Alexander A. Auer      : GIAO ZORA, VPT2 properties, NMR spectrum      
  Ute Becker             : All parallelization in ORCA, NUMFREQ, NUMCALC 
  Giovanni Bistoni       : ED, misc. LED, open-shell LED, HFLD           
  Dmytro Bykov           : pre 5.0 version of the SCF Hessian            
  Marcos Casanova-Páez   : Triplet and SCS-CIS(D). UHF-(DLPNO)-IP/EA/STEOM-CCSD. UHF-CVS-IP/STEOM-CCSD   
  Vijay G. Chilkuri      : MRCI spin determinant printing, contributions to CSF-ICE 
  Pauline Colinet        : FMM embedding                                 
  Dipayan Datta          : RHF DLPNO-CCSD density                        
  Achintya Kumar Dutta   : EOM-CC, STEOM-CC                              
  Nicolas Foglia         : Exact transition moments, OPA infrastructure, MCD improvements    
  Dmitry Ganyushin       : Spin-Orbit,Spin-Spin,Magnetic field MRCI      
  Miquel Garcia-Rates    : C-PCM and meta-GGA Hessian, CCSD/C-PCM, Gaussian charge scheme 
  Tiago L. C. Gouveia    : GS-ROHF, GS-ROCIS                             
  Yang Guo               : DLPNO-NEVPT2, F12-NEVPT2, CIM, IAO-localization        
  Andreas Hansen         : Spin unrestricted coupled pair/coupled cluster methods 
  Ingolf Harden          : AUTO-CI MPn and infrastructure                
  Benjamin Helmich-Paris : MC-RPA, TRAH-(SCF,CASSCF), AVAS, COSX integrals, SCF dyn. polar., MC-PDFT, srDFT 
  Lee Huntington         : MR-EOM, pCC                                   
  Robert Izsak           : Overlap fitted RIJCOSX, COSX-SCS-MP3, EOM     
  Riya Kayal             : Wick's Theorem for AUTO-CI, AUTO-CI UHF-CCSDT 
  Emily Kempfer          : AUTO-CI RHF CISDT and CCSDT, approximate NEVPT4
  Christian Kollmar      : KDIIS, OOCD, Brueckner-CCSD(T), CCSD density, CASPT2, CASPT2-K, improved NEVPT2 
  Axel Koslowski         : Symmetry handling                             
  Simone Kossmann        : meta-GGA functionals, TD-DFT gradient, OOMP2, (MP2 Hessian; deprecated post 5.0) 
  Lucas Lang             : DCDCAS, Hyperfine gauge corrections, ICE-SOC+SSC
  Marvin Lechner         : AUTO-CI (C++ implementation), FIC-MRCC        
  Spencer Leger          : CASSCF response                               
  Dagmar Lenk            : GEPOL surface, SMD, ORCA-2-JSON               
  Dimitrios Liakos       : Extrapolation schemes; Compound Job, Property file
  Dimitrios Manganas     : Further ROCIS development; embedding schemes. LFT, Crystal Embedding 
  Dimitrios Pantazis     : SARC Basis sets                               
  Anastasios Papadopoulos: AUTO-CI, single reference methods and gradients 
  Taras Petrenko         : pre 6.0 DFT Hessian and TD-DFT gradient,  ECA, NRVS 
  Petra Pikulova         : Analytic Raman intensities                    
  Peter Pinski           : DLPNO-MP2, DLPNO-MP2 Gradient                 
  Shashank Vittal Rao    : ES-AILFT, MagRelax                            
  Christoph Reimann      : Effective Core Potentials                     
  Marius Retegan         : Local ZFS, SOC                                
  Christoph Riplinger    : Optimizer, TS searches, QM/MM, DLPNO-CCSD(T), (RO)-DLPNO pert. Triples 
  Michael Roemelt        : Original ROCIS implementation, recursive CI coupling coefficients
  Masaaki Saitow         : Open-shell DLPNO-CCSD energy and density      
  Barbara Sandhoefer     : DKH picture change effects                    
  Yorick L. A. Schmerwitz: GMF and freeze-and-release deltaSCF, NEB S-IDPP initial path                    
  Kantharuban Sivalingam : CASSCF convergence/infrastructure, NEVPT2, NEVPT3, NEVPT4(SD), FIC-MRCI and CEPA variants
  Bernardo de Souza      : ESD, SOC TD-DFT                               
  Georgi L. Stoychev     : AutoAux, RI-MP2 NMR, DLPNO-MP2 response, X2C  
  Van Anh Tran           : RI-MP2 g-tensors                              
  Willem Van den Heuvel  : Paramagnetic NMR                              
  Zikuan Wang            : NOTCH, Electric field optimization            
  Frank Wennmohs         : Technical directorship and infrastructure     
  Hang Xu                : AUTO-CI-Response properties                   
                                                                         
[FACCTs GmbH]                                                            
  Markus Bursch, Nicolas Foglia, Miquel Garcia-Rates, Ingolf Harden, Hagen Neugebauer, Anastasios Papadopoulos, 
  Christoph Riplinger, Bernardo de Souza, Georgi L. Stoychev                                                    
                                                                 
  APM, various basis sets, CI-OPT, improved COSX, DLPNO-Multilevel,           
  DOCKER, DRACO, updates on ESD, Fragmentator, GOAT, IRC, LR-CPCM, L-BFGS, MBIS, meta-GGA TD-DFT gradient, ML-optimized integration grids, 
  MM, NACMEs, nearIR, NEB, NEB-TS, NL-DFT gradient (VV10), 2- and 3-layer-ONIOM, interface openCOSMO-RS, QMMM,   
  Crystal-QMMM, RESP, rigid body optimization, SF, symmetry and pop. for TD-DFT, various functionals, SOLVATOR                                   
                                                                         
[Other institutions]                                                     
  V. Asgeirsson          : NEB                                           
  Christoph Bannwarth    : sTDA-DFT, sTD-DFT, PBEh-3c, B97-3c, D3        
  Giovanni Bistoni       : ETS/NOCV, ADLD/ADEX, COVALED                  
  Martin Brehm           : Molecular dynamics                            
  Ronald Cardenas        : ETS/NOCV                                      
  Martina Colucci        : COVALED                                       
  Sebastian Ehlert       : rSCAN, r2SCAN, r2SCAN-3c, D4, dhf basis sets  
  Marvin Friede          : D4 for Fr, Ra, Ac-Lr                          
  Lars Goerigk           : TD-DFT with DH, B97 family of functionals     
  Stefan Grimme          : VdW corrections, initial TS optimization, DFT functionals, gCP, sTDA/sTD-DF 
  Waldemar Hujo          : DFT-NL                                        
  H. Jonsson             : NEB                                           
  Holger Kruse           : gCP                                           
  Marcel Mueller         : wB97X-3c, vDZP basis set                      
  Hagen Neugebauer       : wr2SCAN, Native XTB                           
  Gianluca Regni         : ADLD/ADEX                                     
  Tobias Risthaus        : pre 6.0 range-separated hybrid DFT and stability analysis
  Lukas Wittmann         : regularized MP2, r2SCAN double-hybrids, wr2SCAN        
                                                                         
We gratefully acknowledge several colleagues who have allowed us to      
interface, adapt or use parts of their codes:                            
  Ed Valeev, F. Pavosevic, A. Kumar             : LibInt (2-el integral package), F12 methods 
  Garnet Chan, S. Sharma, J. Yang, R. Olivares  : DMRG                   
  Ulf Ekstrom                                   : XCFun DFT Library      
  Mihaly Kallay                                 : mrcc  (arbitrary order and MRCC methods)
  Frank Weinhold                                : gennbo (NPA and NBO analysis)           
  Simon Mueller                                 : openCOSMO-RS                            
  Christopher J. Cramer and Donald G. Truhlar   : smd solvation model                     
  S Lehtola, MJT Oliveira, MAL Marques          : LibXC Library                           
  Liviu Ungur et al                             : ANISO software                          


 Your calculation uses the libint2 library for the computation of 2-el integrals
 For citations please refer to: http://libint.valeyev.net

 Your ORCA version has been built with support for libXC version: 7.0.0
 For citations please refer to: https://libxc.gitlab.io

 This ORCA versions uses:
   CBLAS   interface :  Fast vector & matrix operations
   LAPACKE interface :  Fast linear algebra routines
   SCALAPACK package :  Parallel linear algebra routines
   Shared memory     :  Shared parallel matrices
   BLAS/LAPACK       :  OpenBLAS 0.3.29  USE64BITINT DYNAMIC_ARCH NO_AFFINITY Cooperlake SINGLE_THREADED
        Core in use  :  Cooperlake
   Copyright (c) 2011-2014, The OpenBLAS Project


  ***********************************
  * Starting time: Wed May 13 14:54:46 2026
  * Host name:     node023.aire.lee.alces.network
  * Process ID:    1204218
  * Working dir.:  /tmp/job.4919703
  ***********************************

NOTE: MaxCore=4000 MB was set to SCF,MP2,MDCI,CIPSI,MRCI,RASCI and CIS
      => If you want to overwrite this, your respective input block should be placed after the MaxCore statement


***************************************
The coordinates will be read from file: conf_002.xyz
***************************************


Your calculation utilizes the atom-pairwise dispersion correction
based on EEQ partial charges (D4)


================================================================================

cite the ECPs for C  [vDZP-ECP], F  [vDZP-ECP], O  [vDZP-ECP] as follows:
   B-Ne (ecp-2-mwb), Al-Ar (ecp-10-mwb), Ga-Kr (ecp-28-mwb), Y-Cd (ecp-28-mwb), In-Xe (ecp-46-mwb):
     A. Bergner, M. Dolg, W. Küchle, H. Stoll, and H. Preuß, Mol. Phys. 80, 1431 (1993)., T. Leininger, A. Berning, A. Nicklass, H. Stoll, H.-J. Werner, and H.-J.Flad, Chem. Phys. 217, 19 (1997).
   Na-Mg, K-Ca, Rb-Sr, Cs-Ba (CRENBL):
     L. Fernandez Pacios and P. A. Christiansen, J. Chem. Phys. 82, 2664 (1985)., M. M. Hurley, L. F. Pacios, P. A. Christiansen, R. B. Ross, and W. C. Ermler, J. Chem. Phys. 84, 6840 (1986)., L. A. LaJohn, P. A. Christiansen, R. B. Ross, T. Atashroo, and W. C. Ermler, J. Chem. Phys. 87, 2812 (1987)., R. B. Ross, J. M. Powers, T. Atashroo, W. C. Ermler, L. A. LaJohn, and P. A. Christiansen, J. Chem. Phys. 93, 6654 (1990). 
   Sc-Zn (ecp-10-mdf):
     M. Dolg, U. Wedig, H. Stoll, and H. Preuss, J. Chem. Phys. 86, 866 (1986). 
   Y-Cd (ecp-28-mwb), Hf-Hg (ecp-60-mwb):
     D. Andrae, U. Häußermann, M. Dolg, H. Stoll, and H. Preuß, Theor. Chim. Acta 77, 123 (1990). 
   La (ecp-46-mwb):
     M. Dolg, H. Stoll, and H. Preuss, J. Chem. Phys. 90, 1730 (1989)., M. Dolg, H. Stoll, and H. Preuss, Theor. Chim. Acta 85, 441 (1993).
   Ce-Lu (SBKJC-ecp):
     T. R. Cundari and W. J. Stevens, J. Chem. Phys. 98, 5555 (1993).
   Tl-Rn (ecp-78-mwb):
     W. Küchle, M. Dolg, H. Stoll, and H. Preuss, Mol. Phys. 74, 1245 (1991).

ECP parameters for C  [vDZP-ECP], F  [vDZP-ECP], O  [vDZP-ECP] have been obtained from:
MM, AH, SG, J. Chem. Phys. 158, 014103 (2023), 10.1063/5.0133026

----- Orbital basis set information -----
Your calculation utilizes the basis: vDZP
   Marcel Mueller, Andreas Hansen, Stefan Grimme 
   J. Chem. Phys. 158, 014103 (2023). DOI: 10.1063/5.0133026

----- AuxJ basis set information -----
Your calculation utilizes the auxiliary basis: def2/J
   H-Rn: F. Weigend, Phys. Chem. Chem. Phys. 8, 1057 (2006).
   Fr-Lr: K. Eichkorn, F. Weigend, O. Treutler, R. Ahlrichs; Theor. Chem. Acc. 97, 119 (1997).

================================================================================
                                        WARNINGS
                       Please study these warnings very carefully!
================================================================================

WARNING: Frozen-Core approximation turned on, but there are no core electrons.
  ===> : Turning off frozen-core approximation


================================================================================
                                       INPUT FILE
================================================================================
NAME = conf_002.inp
|  1> ! wb97x-3c mbis hirshfeld chelpg resp
|  2> %pal nprocs 4 end
|  3> %maxcore 4000
|  4> %method
|  5> 	   MBIS_LARGEPRINT TRUE
|  6> 	end
|  7> #conf_002
|  8> * xyzfile 0 1 conf_002.xyz
|  9> 
| 10>                          ****END OF INPUT****
================================================================================

                       ****************************
                       * Single Point Calculation *
                       ****************************

---------------------------------
CARTESIAN COORDINATES (ANGSTROEM)
---------------------------------
  C      8.642615    2.531128   -0.029648
  C      8.937514    1.241376    0.724305
  C      8.515949   -0.004897   -0.069038
  C      7.030624   -0.052392   -0.255251
  C      6.204860   -0.443164    0.792424
  C      4.834952   -0.443411    0.631269
  F      4.075267   -0.850154    1.665861
  C      4.209836   -0.073578   -0.560714
  C      2.747697   -0.087392   -0.718939
  C      2.168834   -0.628223   -1.863994
  C      0.794834   -0.630549   -1.998239
  F      0.264543   -1.186482   -3.091494
  C     -0.053514   -0.116786   -1.016694
  C     -1.533568   -0.110109   -1.211720
  O     -2.080027    0.135249   -2.249608
  O     -2.142146   -0.399980   -0.048597
  C     -3.512243   -0.436194    0.094503
  C     -3.983537   -0.140704    1.368999
  C     -5.339048   -0.199283    1.613201
  F     -5.768633    0.112197    2.850573
  C     -6.262563   -0.535420    0.622580
  C     -7.708798   -0.583996    0.886035
  C     -8.205799   -1.154087    2.054874
  C     -9.568803   -1.199665    2.276207
  F    -10.033776   -1.761131    3.399873
  C    -10.468162   -0.680581    1.350975
  F    -11.787108   -0.727970    1.572476
  C     -9.959821   -0.110821    0.188380
  F    -10.803870    0.400617   -0.718533
  C     -8.600245   -0.062838   -0.048856
  C     -5.754342   -0.821918   -0.642539
  C     -4.399853   -0.784967   -0.915012
  C      0.558125    0.415178    0.118210
  F     -0.198841    0.957773    1.081369
  C      1.928792    0.439651    0.276638
  C      5.069523    0.306631   -1.591375
  F      4.544631    0.700018   -2.766466
  C      6.443359    0.327794   -1.454864
  H      8.972472    3.389836    0.549651
  H      9.163263    2.543532   -0.984547
  H      7.576106    2.633472   -0.216761
  H     10.007960    1.177266    0.927342
  H      8.414297    1.251406    1.682205
  H      8.841062   -0.893881    0.474682
  H      9.011624    0.005430   -1.040431
  H      6.619280   -0.754112    1.738531
  H      2.770941   -1.053377   -2.650606
  H     -3.295088    0.134832    2.151214
  H     -7.548839   -1.574276    2.798792
  H     -8.247276    0.402707   -0.954907
  H     -6.438776   -1.105489   -1.426633
  H     -4.041857   -1.018057   -1.903802
  H      2.342966    0.876589    1.170912
  H      7.044607    0.643198   -2.292857

----------------------------
CARTESIAN COORDINATES (A.U.)
----------------------------
  NO LB      ZA    FRAG     MASS         X           Y           Z
   0 C     4.0000*   0    12.011   16.332176    4.783138   -0.056026
   1 C     4.0000*   0    12.011   16.889453    2.345861    1.368737
   2 C     4.0000*   0    12.011   16.092812   -0.009253   -0.130463
   3 C     4.0000*   0    12.011   13.285954   -0.099007   -0.482355
   4 C     4.0000*   0    12.011   11.725487   -0.837459    1.497465
   5 C     4.0000*   0    12.011    9.136735   -0.837925    1.192926
   6 F     7.0000*   0    18.998    7.701139   -1.606559    3.148021
   7 C     4.0000*   0    12.011    7.955437   -0.139042   -1.059595
   8 C     4.0000*   0    12.011    5.192394   -0.165147   -1.358597
   9 C     4.0000*   0    12.011    4.098503   -1.187169   -3.522438
  10 C     4.0000*   0    12.011    1.502018   -1.191564   -3.776125
  11 F     7.0000*   0    18.998    0.499914   -2.242126   -5.842076
  12 C     4.0000*   0    12.011   -0.101127   -0.220693   -1.921274
  13 C     4.0000*   0    12.011   -2.898024   -0.208076   -2.289818
  14 O     6.0000*   0    15.999   -3.930682    0.255584   -4.251143
  15 O     6.0000*   0    15.999   -4.048070   -0.755853   -0.091834
  16 C     4.0000*   0    12.011   -6.637177   -0.824286    0.178584
  17 C     4.0000*   0    12.011   -7.527795   -0.265893    2.587033
  18 C     4.0000*   0    12.011  -10.089339   -0.376590    3.048508
  19 F     7.0000*   0    18.998  -10.901136    0.212021    5.386803
  20 C     4.0000*   0    12.011  -11.834530   -1.011796    1.176507
  21 C     4.0000*   0    12.011  -14.567518   -1.103592    1.674363
  22 C     4.0000*   0    12.011  -15.506713   -2.180908    3.883148
  23 C     4.0000*   0    12.011  -18.082416   -2.267039    4.301408
  24 F     7.0000*   0    18.998  -18.961090   -3.328056    6.424829
  25 C     4.0000*   0    12.011  -19.781960   -1.286112    2.552973
  26 F     7.0000*   0    18.998  -22.274406   -1.375665    2.971550
  27 C     4.0000*   0    12.011  -18.821335   -0.209421    0.355986
  28 F     7.0000*   0    18.998  -20.416355    0.757056   -1.357831
  29 C     4.0000*   0    12.011  -16.252107   -0.118746   -0.092324
  30 C     4.0000*   0    12.011  -10.874131   -1.553200   -1.214223
  31 C     4.0000*   0    12.011   -8.314518   -1.483373   -1.729122
  32 C     4.0000*   0    12.011    1.054703    0.784572    0.223384
  33 F     7.0000*   0    18.998   -0.375755    1.809929    2.043492
  34 C     4.0000*   0    12.011    3.644889    0.830820    0.522770
  35 C     4.0000*   0    12.011    9.580010    0.579450   -3.007262
  36 F     7.0000*   0    18.998    8.588107    1.322843   -5.227863
  37 C     4.0000*   0    12.011   12.176183    0.619442   -2.749294
  38 H     1.0000    0     1.008   16.955516    6.405862    1.038691
  39 H     1.0000    0     1.008   17.316057    4.806580   -1.860525
  40 H     1.0000    0     1.008   14.316765    4.976542   -0.409618
  41 H     1.0000    0     1.008   18.912304    2.224711    1.752423
  42 H     1.0000    0     1.008   15.900716    2.364816    3.178907
  43 H     1.0000    0     1.008   16.707186   -1.689190    0.897020
  44 H     1.0000    0     1.008   17.029502    0.010261   -1.966129
  45 H     1.0000    0     1.008   12.508627   -1.425065    3.285348
  46 H     1.0000    0     1.008    5.236320   -1.990594   -5.008920
  47 H     1.0000    0     1.008   -6.226815    0.254796    4.065205
  48 H     1.0000    0     1.008  -14.265238   -2.974950    5.288951
  49 H     1.0000    0     1.008  -15.585094    0.761007   -1.804513
  50 H     1.0000    0     1.008  -12.167523   -2.089072   -2.695945
  51 H     1.0000    0     1.008   -7.638002   -1.923849   -3.597665
  52 H     1.0000    0     1.008    4.427565    1.656514    2.212702
  53 H     1.0000    0     1.008   13.312378    1.215468   -4.332871
* core charge reduced due to ECP

--------------------------------
INTERNAL COORDINATES (ANGSTROEM)
--------------------------------
 C      0   0   0     0.000000000000     0.00000000     0.00000000
 C      1   0   0     1.522782833594     0.00000000     0.00000000
 C      2   1   0     1.536328536615   112.22550691     0.00000000
 C      3   2   1     1.497705374455   111.22662520   294.92886189
 C      4   3   2     1.390040535257   120.28838502   282.97707102
 C      5   4   3     1.379354827256   120.13118806   177.85654391
 F      6   5   4     1.346455036508   118.07507900   178.94634041
 C      6   5   4     1.395840158940   122.99037591     0.54058441
 C      8   6   5     1.470740787566   122.31708165   179.60665976
 C      9   8   6     1.392383259559   120.35950699   225.03307709
 C     10   9   8     1.380545005569   119.62928413   180.15022313
 F     11  10   9     1.336216924076   118.37491822   181.68062426
 C     11  10   9     1.395377085084   122.41626194   359.44637961
 C     13  11  10     1.492862695992   120.83090314   178.64984741
 O     14  13  11     1.198344725512   124.48294469   320.57763030
 O     14  13  11     1.344339373120   109.56159598   141.45655448
 C     16  14  13     1.378024821717   123.06597210   178.36921043
 C     17  16  14     1.390601663769   115.24904571   208.22693074
 C     18  17  16     1.378577331853   119.11506711   182.23735647
 F     19  18  17     1.346347644760   117.82077243   181.02156753
 C     19  18  17     1.395420214981   122.35931023   359.48635191
 C     21  19  18     1.470837616115   122.10999795   180.58495080
 C     22  21  19     1.392191746490   120.99254002   317.43928959
 C     23  22  21     1.381609073889   120.01268513   180.58008179
 F     24  23  22     1.339428690246   119.38601944   179.44141060
 C     24  23  22     1.390809580983   121.26865734   359.81710445
 F     26  24  23     1.338254764237   120.92995300   180.02084542
 C     26  24  23     1.390922585999   118.20300716     0.03712967
 F     28  26  24     1.340327269982   119.45355220   180.19726782
 C     28  26  24     1.380953425545   121.17386118     0.21777565
 C     21  19  18     1.393161142584   116.92157101     0.35585929
 C     31  21  19     1.382116614622   122.07507070     0.31518084
 C     13  11  10     1.394666200250   116.50133432     0.43530936
 F     33  13  11     1.339807458847   119.45103804   178.17493573
 C     33  13  11     1.380010086562   122.39620181     0.00000000
 C      8   6   5     1.394949050718   115.28766626   359.75459721
 F     36   8   6     1.345772872664   118.97632674   181.14665018
 C     36   8   6     1.380763400134   122.97843624   359.65692135
 H      1   2   3     1.087093998177   110.26909545   181.23363626
 H      1   2   3     1.087686266666   110.58710387   300.95601390
 H      1   2   3     1.087625220199   110.77970026    61.28920603
 H      2   1   3     1.091416615799   109.37773315   120.48685309
 H      2   1   3     1.091526304252   109.50508559   238.54083239
 H      3   2   1     1.091615310657   108.76531275   174.43014234
 H      3   2   1     1.090597837791   109.12025700    56.33058209
 H      5   4   3     1.078679902194   120.92231828   357.57341557
 H     10   9   8     1.077982759514   121.40432775     0.53310272
 H     18  17  16     1.077841860135   120.19713389     2.54304683
 H     23  22  21     1.077761924933   121.43613567     0.05268797
 H     30  28  26     1.078075739821   118.79786054   181.03248350
 H     31  21  19     1.078732911975   118.85955308   178.74519092
 H     32  31  21     1.077125215346   120.06009508   179.64039052
 H     35  33  13     1.078044919573   118.94756207   179.17459528
 H     38  36   8     1.078522469883   118.83848121   180.63122278

---------------------------
INTERNAL COORDINATES (A.U.)
---------------------------
 C      0   0   0     0.000000000000     0.00000000     0.00000000
 C      1   0   0     2.877642516930     0.00000000     0.00000000
 C      2   1   0     2.903240185931   112.22550691     0.00000000
 C      3   2   1     2.830252987021   111.22662520   294.92886189
 C      4   3   2     2.626795926685   120.28838502   282.97707102
 C      5   4   3     2.606602865015   120.13118806   177.85654391
 F      6   5   4     2.544431270638   118.07507900   178.94634041
 C      6   5   4     2.637755627125   122.99037591     0.54058441
 C      8   6   5     2.779297302488   122.31708165   179.60665976
 C      9   8   6     2.631223034023   120.35950699   225.03307709
 C     10   9   8     2.608851976078   119.62928413   180.15022313
 F     11  10   9     2.525084042014   118.37491822   181.68062426
 C     11  10   9     2.636880544358   122.41626194   359.44637961
 C     13  11  10     2.821101650971   120.83090314   178.64984741
 O     14  13  11     2.264543345247   124.48294469   320.57763030
 O     14  13  11     2.540433246245   109.56159598   141.45655448
 C     16  14  13     2.604089518791   123.06597210   178.36921043
 C     17  16  14     2.627856305898   115.24904571   208.22693074
 C     18  17  16     2.605133611634   119.11506711   182.23735647
 F     19  18  17     2.544228329646   117.82077243   181.02156753
 C     19  18  17     2.636962048052   122.35931023   359.48635191
 C     21  19  18     2.779480281928   122.10999795   180.58495080
 C     22  21  19     2.630861126772   120.99254002   317.43928959
 C     23  22  21     2.610862773791   120.01268513   180.58008179
 F     24  23  22     2.531153400481   119.38601944   179.44141060
 C     24  23  22     2.628249212492   121.26865734   359.81710445
 F     26  24  23     2.528935001823   120.92995300   180.02084542
 C     26  24  23     2.628462761023   118.20300716     0.03712967
 F     28  26  24     2.532851470092   119.45355220   180.19726782
 C     28  26  24     2.609623777981   121.17386118     0.21777565
 C     21  19  18     2.632693019905   116.92157101     0.35585929
 C     31  21  19     2.611821886778   122.07507070     0.31518084
 C     13  11  10     2.635537166710   116.50133432     0.43530936
 F     33  13  11     2.531869169407   119.45103804   178.17493573
 C     33  13  11     2.607841125651   122.39620181     0.00000000
 C      8   6   5     2.636071676631   115.28766626   359.75459721
 F     36   8   6     2.543142167796   118.97632674   181.14665018
 C     36   8   6     2.609264681996   122.97843624   359.65692135
 H      1   2   3     2.054309938383   110.26909545   181.23363626
 H      1   2   3     2.055429163625   110.58710387   300.95601390
 H      1   2   3     2.055313802521   110.77970026    61.28920603
 H      2   1   3     2.062478501870   109.37773315   120.48685309
 H      2   1   3     2.062685783007   109.50508559   238.54083239
 H      3   2   1     2.062853980737   108.76531275   174.43014234
 H      3   2   1     2.060931235671   109.12025700    56.33058209
 H      5   4   3     2.038409601312   120.92231828   357.57341557
 H     10   9   8     2.037092192570   121.40432775     0.53310272
 H     18  17  16     2.036825931331   120.19713389     2.54304683
 H     23  22  21     2.036674875692   121.43613567     0.05268797
 H     30  28  26     2.037267899886   118.79786054   181.03248350
 H     31  21  19     2.038509775281   118.85955308   178.74519092
 H     32  31  21     2.035471668944   120.06009508   179.64039052
 H     35  33  13     2.037209658059   118.94756207   179.17459528
 H     38  36   8     2.038112097359   118.83848121   180.63122278

---------------------
BASIS SET INFORMATION
---------------------
There are 4 groups of distinct atoms

 Group   1 Type C   : 6s6p2d contracted to 2s2p1d pattern {42/42/2}
 Group   2 Type F   : 6s6p2d contracted to 2s2p1d pattern {42/42/2}
 Group   3 Type O   : 6s6p2d contracted to 2s2p1d pattern {42/42/2}
 Group   4 Type H   : 8s2p contracted to 2s1p pattern {53/2}

Atom   0C    basis set group =>   1
Atom   1C    basis set group =>   1
Atom   2C    basis set group =>   1
Atom   3C    basis set group =>   1
Atom   4C    basis set group =>   1
Atom   5C    basis set group =>   1
Atom   6F    basis set group =>   2
Atom   7C    basis set group =>   1
Atom   8C    basis set group =>   1
Atom   9C    basis set group =>   1
Atom  10C    basis set group =>   1
Atom  11F    basis set group =>   2
Atom  12C    basis set group =>   1
Atom  13C    basis set group =>   1
Atom  14O    basis set group =>   3
Atom  15O    basis set group =>   3
Atom  16C    basis set group =>   1
Atom  17C    basis set group =>   1
Atom  18C    basis set group =>   1
Atom  19F    basis set group =>   2
Atom  20C    basis set group =>   1
Atom  21C    basis set group =>   1
Atom  22C    basis set group =>   1
Atom  23C    basis set group =>   1
Atom  24F    basis set group =>   2
Atom  25C    basis set group =>   1
Atom  26F    basis set group =>   2
Atom  27C    basis set group =>   1
Atom  28F    basis set group =>   2
Atom  29C    basis set group =>   1
Atom  30C    basis set group =>   1
Atom  31C    basis set group =>   1
Atom  32C    basis set group =>   1
Atom  33F    basis set group =>   2
Atom  34C    basis set group =>   1
Atom  35C    basis set group =>   1
Atom  36F    basis set group =>   2
Atom  37C    basis set group =>   1
Atom  38H    basis set group =>   4
Atom  39H    basis set group =>   4
Atom  40H    basis set group =>   4
Atom  41H    basis set group =>   4
Atom  42H    basis set group =>   4
Atom  43H    basis set group =>   4
Atom  44H    basis set group =>   4
Atom  45H    basis set group =>   4
Atom  46H    basis set group =>   4
Atom  47H    basis set group =>   4
Atom  48H    basis set group =>   4
Atom  49H    basis set group =>   4
Atom  50H    basis set group =>   4
Atom  51H    basis set group =>   4
Atom  52H    basis set group =>   4
Atom  53H    basis set group =>   4
---------------------------------
AUXILIARY/J BASIS SET INFORMATION
---------------------------------
There are 4 groups of distinct atoms

 Group   1 Type C   : 12s5p4d2f1g contracted to 6s4p3d1f1g pattern {711111/2111/211/2/1}
 Group   2 Type F   : 12s5p4d2f1g contracted to 6s4p3d1f1g pattern {711111/2111/211/2/1}
 Group   3 Type O   : 12s5p4d2f1g contracted to 6s4p3d1f1g pattern {711111/2111/211/2/1}
 Group   4 Type H   : 5s2p1d contracted to 3s1p1d pattern {311/2/1}

Atom   0C    basis set group =>   1
Atom   1C    basis set group =>   1
Atom   2C    basis set group =>   1
Atom   3C    basis set group =>   1
Atom   4C    basis set group =>   1
Atom   5C    basis set group =>   1
Atom   6F    basis set group =>   2
Atom   7C    basis set group =>   1
Atom   8C    basis set group =>   1
Atom   9C    basis set group =>   1
Atom  10C    basis set group =>   1
Atom  11F    basis set group =>   2
Atom  12C    basis set group =>   1
Atom  13C    basis set group =>   1
Atom  14O    basis set group =>   3
Atom  15O    basis set group =>   3
Atom  16C    basis set group =>   1
Atom  17C    basis set group =>   1
Atom  18C    basis set group =>   1
Atom  19F    basis set group =>   2
Atom  20C    basis set group =>   1
Atom  21C    basis set group =>   1
Atom  22C    basis set group =>   1
Atom  23C    basis set group =>   1
Atom  24F    basis set group =>   2
Atom  25C    basis set group =>   1
Atom  26F    basis set group =>   2
Atom  27C    basis set group =>   1
Atom  28F    basis set group =>   2
Atom  29C    basis set group =>   1
Atom  30C    basis set group =>   1
Atom  31C    basis set group =>   1
Atom  32C    basis set group =>   1
Atom  33F    basis set group =>   2
Atom  34C    basis set group =>   1
Atom  35C    basis set group =>   1
Atom  36F    basis set group =>   2
Atom  37C    basis set group =>   1
Atom  38H    basis set group =>   4
Atom  39H    basis set group =>   4
Atom  40H    basis set group =>   4
Atom  41H    basis set group =>   4
Atom  42H    basis set group =>   4
Atom  43H    basis set group =>   4
Atom  44H    basis set group =>   4
Atom  45H    basis set group =>   4
Atom  46H    basis set group =>   4
Atom  47H    basis set group =>   4
Atom  48H    basis set group =>   4
Atom  49H    basis set group =>   4
Atom  50H    basis set group =>   4
Atom  51H    basis set group =>   4
Atom  52H    basis set group =>   4
Atom  53H    basis set group =>   4
-------------------------
ECP PARAMETER INFORMATION
-------------------------

 Group 1, Type C  ECP vDZP-ECP (replacing 2 core electrons, lmax=3)
 Group 2, Type F  ECP vDZP-ECP (replacing 2 core electrons, lmax=3)
 Group 3, Type O  ECP vDZP-ECP (replacing 2 core electrons, lmax=3)

Atom   0C    ECP group =>   1
Atom   1C    ECP group =>   1
Atom   2C    ECP group =>   1
Atom   3C    ECP group =>   1
Atom   4C    ECP group =>   1
Atom   5C    ECP group =>   1
Atom   6F    ECP group =>   2
Atom   7C    ECP group =>   1
Atom   8C    ECP group =>   1
Atom   9C    ECP group =>   1
Atom  10C    ECP group =>   1
Atom  11F    ECP group =>   2
Atom  12C    ECP group =>   1
Atom  13C    ECP group =>   1
Atom  14O    ECP group =>   3
Atom  15O    ECP group =>   3
Atom  16C    ECP group =>   1
Atom  17C    ECP group =>   1
Atom  18C    ECP group =>   1
Atom  19F    ECP group =>   2
Atom  20C    ECP group =>   1
Atom  21C    ECP group =>   1
Atom  22C    ECP group =>   1
Atom  23C    ECP group =>   1
Atom  24F    ECP group =>   2
Atom  25C    ECP group =>   1
Atom  26F    ECP group =>   2
Atom  27C    ECP group =>   1
Atom  28F    ECP group =>   2
Atom  29C    ECP group =>   1
Atom  30C    ECP group =>   1
Atom  31C    ECP group =>   1
Atom  32C    ECP group =>   1
Atom  33F    ECP group =>   2
Atom  34C    ECP group =>   1
Atom  35C    ECP group =>   1
Atom  36F    ECP group =>   2
Atom  37C    ECP group =>   1



           ************************************************************
           *        Program running with 4 parallel MPI-processes     *
           *              working on a common directory               *
           ************************************************************
------------------------------------------------------------------------------
                             ORCA STARTUP CALCULATIONS
                           -- RI-GTO INTEGRALS CHOSEN --
------------------------------------------------------------------------------
------------------------------------------------------------------------------
                   ___                                                        
                  /   \      - P O W E R E D   B Y -                         
                 /     \                                                     
                 |  |  |   _    _      __       _____    __    __             
                 |  |  |  | |  | |    /  \     |  _  \  |  |  /  |          
                  \  \/   | |  | |   /    \    | | | |  |  | /  /          
                 / \  \   | |__| |  /  /\  \   | |_| |  |  |/  /          
                |  |  |   |  __  | /  /__\  \  |    /   |      \           
                |  |  |   | |  | | |   __   |  |    \   |  |\   \          
                \     /   | |  | | |  |  |  |  | |\  \  |  | \   \       
                 \___/    |_|  |_| |__|  |__|  |_| \__\ |__|  \__/        
                                                                              
                      - O R C A' S   B I G   F R I E N D -                    
                                      &                                       
                       - I N T E G R A L  F E E D E R -                       
                                                                              
 v1 FN, 2020, v2 2021, v3 2022-2024                                           
------------------------------------------------------------------------------


----------------------
SHARK INTEGRAL PACKAGE
----------------------

Number of atoms                             ...     54
Number of basis functions                   ...    574
Number of shells                            ...    238
Maximum angular momentum                    ...      2
Integral batch strategy                     ... SHARK/LIBINT Hybrid
RI-J (if used) integral strategy            ... SPLIT-RIJ (Revised 2003 algorithm where possible)
Printlevel                                  ...      1
Contraction scheme used                     ... SEGMENTED contraction
Prescreening option                         ... SCHWARTZ
   Thresh                                   ... 1.000e-10
   Tcut                                     ... 1.000e-11
   Tpresel                                  ... 1.000e-11 
Coulomb Range Separation                    ... NOT USED
Exchange Range Separation                   ... Long Range
   Mu parameter                             ... 3.000e-01
   Scaling (regular/separated)              ... 1.670e-01 8.330e-01
Robust (split-)RI terms used:
  metric    (central integrals)             ... YES
  density   (r.h.s.  integrals)             ... YES
  potential (l.h.s.  integrals)             ... YES
Multipole approximations                    ... NOT USED
Finite Nucleus Model                        ... NOT USED
CABS basis                                  ... NOT available
Auxiliary Coulomb fitting basis             ... AVAILABLE
   # of basis functions in Aux-J            ...   2038
   # of shells in Aux-J                     ...    650
   Maximum angular momentum in Aux-J        ...      4
Auxiliary J/K fitting basis                 ... NOT available
Auxiliary Correlation fitting basis         ... NOT available
Auxiliary 'external' fitting basis          ... NOT available

done (  0.0 sec) Dimension = 238
   => SHARK Basis and OBASIS are compatible. Storing Pre-screening
Shell pair information
Shell pair cut-off parameter TPreSel        ...   1.0e-11
Total number of shell pairs                 ...     28441
Shell pairs after pre-screening             ...     18555
Total number of primitive shell pairs       ...    240572
Primitive shell pairs kept                  ...    102765
          la=0 lb=0:   3941 shell pairs
          la=1 lb=0:   6614 shell pairs
          la=1 lb=1:   2866 shell pairs
          la=2 lb=0:   2560 shell pairs
          la=2 lb=1:   2154 shell pairs
          la=2 lb=2:    420 shell pairs

Checking whether 4 symmetric matrices of dimension 574 fit in memory
:Max Core in MB      =   4000.00
 MB in use           =     37.14
 MB left             =   3962.86
 MB needed           =      5.04
 Data fit in memory  = YES
done (  0.3 sec)
Calculating Nuclear repulsion               ... done (  0.0 sec) ENN=   1934.996353092626 Eh

Diagonalization of the overlap matrix:
Smallest eigenvalue                        ... 2.250e-04
Time for diagonalization                   ...    0.042 sec
Threshold for overlap eigenvalues          ... 1.000e-07
Number of eigenvalues below threshold      ... 0
Time for construction of square roots      ...    0.026 sec
Total time needed                          ...    0.075 sec

-------------------
DFT GRID GENERATION
-------------------

General Integration Accuracy     IntAcc      ... 4.388
Radial Grid Type                 RadialGrid  ... OptM3 with GC (2021)
Angular Grid (max. ang.)         AngularGrid ... 4 (Lebedev-302)
Angular grid pruning method      GridPruning ... 4 (adaptive)
Weight generation scheme         WeightScheme... mBecke (2022)
Basis function cutoff            BFCut       ... 1.0000e-10
Integration weight cutoff        WCut        ... 1.0000e-14
Partially contracted basis set               ... off
Rotationally invariant grid construction     ... off
Angular grids for H and He will be reduced by one unit

Total number of grid points                  ...   278729
Total number of batches                      ...     4383
Average number of points per batch           ...       63
Average number of grid points per atom       ...     5162

--------------------
COSX GRID GENERATION
--------------------

GRIDX 1
-------
General Integration Accuracy     IntAcc      ... 3.816
Radial Grid Type                 RadialGrid  ... OptM3 with GC (2021)
Angular Grid (max. ang.)         AngularGrid ... 1 (Lebedev-50)
Angular grid pruning method      GridPruning ... 4 (adaptive)
Weight generation scheme         WeightScheme... mBecke (2022)
Basis function cutoff            BFCut       ... 1.0000e-10
Integration weight cutoff        WCut        ... 1.0000e-14
Partially contracted basis set               ... on
Rotationally invariant grid construction     ... off
Angular grids for H and He will be reduced by one unit

Total number of grid points                  ...    35293
Total number of batches                      ...      305
Average number of points per batch           ...      115
Average number of grid points per atom       ...      654
UseSFitting                                  ... on

GRIDX 2
-------
General Integration Accuracy     IntAcc      ... 4.020
Radial Grid Type                 RadialGrid  ... OptM3 with GC (2021)
Angular Grid (max. ang.)         AngularGrid ... 2 (Lebedev-110)
Angular grid pruning method      GridPruning ... 4 (adaptive)
Weight generation scheme         WeightScheme... mBecke (2022)
Basis function cutoff            BFCut       ... 1.0000e-10
Integration weight cutoff        WCut        ... 1.0000e-14
Partially contracted basis set               ... on
Rotationally invariant grid construction     ... off
Angular grids for H and He will be reduced by one unit

Total number of grid points                  ...    78956
Total number of batches                      ...      641
Average number of points per batch           ...      123
Average number of grid points per atom       ...     1462
UseSFitting                                  ... on

GRIDX 3
-------
General Integration Accuracy     IntAcc      ... 4.338
Radial Grid Type                 RadialGrid  ... OptM3 with GC (2021)
Angular Grid (max. ang.)         AngularGrid ... 3 (Lebedev-194)
Angular grid pruning method      GridPruning ... 4 (adaptive)
Weight generation scheme         WeightScheme... mBecke (2022)
Basis function cutoff            BFCut       ... 1.0000e-10
Integration weight cutoff        WCut        ... 1.0000e-14
Partially contracted basis set               ... on
Rotationally invariant grid construction     ... off
Angular grids for H and He will be reduced by one unit

Total number of grid points                  ...   173429
Total number of batches                      ...     1381
Average number of points per batch           ...      125
Average number of grid points per atom       ...     3212
UseSFitting                                  ... on
Grids setup in   5.1 sec
Initializing property integral containers    ... done (  0.0 sec)

SHARK setup successfully completed in   7.4 seconds

Maximum memory used throughout the entire STARTUP-calculation: 101.4 MB


           ************************************************************
           *        Program running with 4 parallel MPI-processes     *
           *              working on a common directory               *
           ************************************************************
-------------------------------------------------------------------------------
                                 ORCA GUESS
                   Start orbitals & Density for SCF / CASSCF
-------------------------------------------------------------------------------

------------
SCF SETTINGS
------------
Hamiltonian:
 Density Functional     Method          .... DFT(GTOs)
 Exchange Functional    Exchange        .... WB97X-V
 Correlation Functional Correlation     .... WB97X-V
 Gradients option       PostSCFGGA      .... off
 Hybrid DFT is turned on
   Fraction HF Exchange ScalHFX         ....  0.167000
   Scaling of DF-GGA-X  ScalDFX         ....  0.000000
   Scaling of DF-GGA-C  ScalDFC         ....  1.000000
   Scaling of DF-LDA-C  ScalLDAC        ....  1.000000
   Perturbative correction              ....  0.000000
 Long-range corrected/Screened/Range-Separated Hybrid DFT is turned on
   Amount of maximum screened exact exchange              ....  0.833000
   Range separation parameter mu (erf(mu*r12)/r12)        ....  0.300000
   NL short-range parameter             ....  6.000000
   NL long-range parameter              ....  0.010000
 RI-approximation to the Coulomb term is turned on
   Number of AuxJ basis functions       .... 2038
   RIJ-COSX (HFX calculated with COS-X)).... on


General Settings:
 Integral files         IntName         .... conf_002
 Hartree-Fock type      HFTyp           .... RHF
 Total Charge           Charge          ....    0
 Multiplicity           Mult            ....    1
 Number of Electrons    NEL             ....  196
 Basis Dimension        Dim             ....  574
 Nuclear Repulsion      ENuc            ....   1934.9963530926 Eh

Convergence Acceleration:
 AO-DIIS                CNVDIIS         .... on
   Start iteration      DIISMaxIt       ....    12
   Startup error        DIISStart       ....  0.200000
   # of expansion vecs  DIISMaxEq       ....     5
   Bias factor          DIISBfac        ....   1.050
   Max. coefficient     DIISMaxC        ....  10.000
 MO-DIIS                CNVKDIIS        .... off
 Trust-Rad. Augm. Hess. CNVTRAH         .... auto
   Auto Start mean grad. ratio tolernc. ....  1.125000
   Auto Start start iteration           ....    50
   Auto Start num. interpolation iter.  ....    10
   Max. Number of Micro iterations      ....    24
   Max. Number of Macro iterations      .... Maxiter - #DIIS iter
   Number of Davidson start vectors     ....     2
   Converg. threshold    (grad. norm)   ....   5.000e-05
   Grad. Scal. Fac. for Micro threshold ....   0.100
   Minimum threshold for Micro iter.    ....   1.000e-02
   NR start threshold (gradient norm)   ....   1.000e-04
   Initial trust radius                 ....   0.400
   Minimum AH scaling param. (alpha)    ....   1.000
   Maximum AH scaling param. (alpha)    .... 1000.000
   Quad. conv. algorithm                .... NR
   White noise on init. David. guess    .... on
   Maximum white noise                  ....   0.010
   Pseudo random numbers                .... off
   Inactive MOs                         .... canonical
   Orbital update algorithm             .... Taylor
   Preconditioner                       .... Diag
   Full preconditioner red. dimension   ....   250
 SOSCF                 CNVSOSCF           .... on
   Start iteration     SOSCFMaxIt         ....   150
   Startup grad/error  SOSCFStart         ....  0.003300
   Hessian update      SOSCFHessUp        .... L-BFGS
   Autom. constraints  SOSCFAutoConstrain .... off
 Level Shifting         CNVShift        .... on
   Level shift para.    LevelShift      ....    0.2500
   Turn off err/grad.   ShiftErr        ....    0.0010
 Zerner damping         CNVZerner       .... off
 Static damping         CNVDamp         .... on
   Fraction old density DampFac         ....    0.7000
   Max. Damping (<1)    DampMax         ....    0.9800
   Min. Damping (>=0)   DampMin         ....    0.0000
   Turn off err/grad.   DampErr         ....    0.1000

SCF Procedure:
 Maximum # iterations   MaxIter         ....   125
 SCF integral mode      SCFMode         .... Direct
   Integral package                     .... SHARK and LIBINT hybrid scheme
 Reset frequency        DirectResetFreq ....    20
 Integral Threshold     Thresh          ....  1.000e-10 Eh
 Primitive CutOff       TCut            ....  1.000e-11 Eh

Convergence Tolerance:
 Convergence Check Mode ConvCheckMode   .... Total+1el-Energy
 Convergence forced     ConvForced      .... 0
 Energy Change          TolE            ....  1.000e-06 Eh
 1-El. energy change                    ....  1.000e-03 Eh
 Orbital Gradient       TolG            ....  5.000e-05
 Orbital Rotation angle TolX            ....  5.000e-05
 DIIS Error             TolErr          ....  1.000e-06

------------------------------
INITIAL GUESS: MODEL POTENTIAL
------------------------------
Loading Hartree-Fock densities                     ... done
Atomic calculation to generate a density for atom 0 (C  with ECP)
  Multiplicity assumed   :    1
  Atomic configuration   : 1s2 2s2 2p2 
  Number of open shells  : 1
  Command: /opt/apps/pkg/applications/orca/orca_6_1_0_linux_x86-64_shared_openmpi418/orca conf_002_atom6.inp "" > conf_002_atom6.out
Returned from the atomic calculation with res=0
Atomic calculation to generate a density for atom 6 (F  with ECP)
  Multiplicity assumed   :    2
  Atomic configuration   : 1s2 2s2 2p5 
  Number of open shells  : 1
  Command: /opt/apps/pkg/applications/orca/orca_6_1_0_linux_x86-64_shared_openmpi418/orca conf_002_atom9.inp "" > conf_002_atom9.out
Returned from the atomic calculation with res=0
Atomic calculation to generate a density for atom 14 (O  with ECP)
  Multiplicity assumed   :    3
  Atomic configuration   : 1s2 2s2 2p4 
  Number of open shells  : 1
  Command: /opt/apps/pkg/applications/orca/orca_6_1_0_linux_x86-64_shared_openmpi418/orca conf_002_atom8.inp "" > conf_002_atom8.out
Returned from the atomic calculation with res=0
Calculating cut-offs                               ... done
Initializing the effective Hamiltonian             ... done
Setting up the integral package (SHARK)            ... done
done (   1.4 sec)
done (   0.7 sec)
Mapping shells                                     ... done
Starting the XC term evaluation                    ... done (   0.4 sec)
  promolecular density results
     # of electrons  =    271.986661488
     EX              =   -168.151107007
     EC              =    -11.746027675
     EX+EC           =   -179.897134683
Transforming the Hamiltonian                       ... done (   0.0 sec)
done (   0.1 sec)
Back transforming the eigenvectors                 ... done (   0.0 sec)
done
                      ------------------
                      INITIAL GUESS DONE (   4.7 sec)
                      ------------------
             **** ENERGY FILE WAS UPDATED (conf_002.en.tmp) ****
Finished Guess after   6.3 sec
Maximum memory used throughout the entire GUESS-calculation: 55.8 MB


           ************************************************************
           *        Program running with 4 parallel MPI-processes     *
           *              working on a common directory               *
           ************************************************************

-------------------------------------------------------------------------------------------
                                      ORCA LEAN-SCF
                              memory conserving SCF solver
-------------------------------------------------------------------------------------------

----------------------------------------D-I-I-S--------------------------------------------
Iteration    Energy (Eh)           Delta-E    RMSDP     MaxDP     DIISErr   Damp  Time(sec)
-------------------------------------------------------------------------------------------
               ***  Starting incremental Fock matrix formation  ***
    1    -394.3720393227492877     0.00e+00  5.83e-03  9.43e-02  2.19e-01  0.700  59.3
    2    -394.9441790291059533    -5.72e-01  4.22e-03  6.70e-02  1.10e-01  0.700  24.6
                               ***Turning on AO-DIIS***
    3    -395.2089099440092923    -2.65e-01  2.44e-03  3.46e-02  5.78e-02  0.700  23.6
    4    -395.3660923077738971    -1.57e-01  5.37e-03  7.19e-02  3.47e-02  0.000  22.2
    5    -395.7086563984341865    -3.43e-01  4.52e-04  6.97e-03  6.43e-03  0.000  24.3
    6    -395.7104739651301770    -1.82e-03  2.34e-04  4.68e-03  3.33e-03  0.000  19.9
                              *** Initializing SOSCF ***
---------------------------------------S-O-S-C-F--------------------------------------
Iteration    Energy (Eh)           Delta-E    RMSDP     MaxDP     MaxGrad    Time(sec)
--------------------------------------------------------------------------------------
    7    -395.7109787891697579    -5.05e-04  1.21e-04  3.45e-03  2.68e-03    18.7
               *** Restarting incremental Fock matrix formation ***
    8    -395.7111982994040318    -2.20e-04  7.95e-05  1.70e-03  1.23e-03    58.2
    9    -395.7112496284596546    -5.13e-05  9.51e-05  2.80e-03  6.04e-04    36.6
   10    -395.7112632957739606    -1.37e-05  3.04e-05  1.45e-03  2.33e-04    36.7
   11    -395.7112692206867450    -5.92e-06  1.07e-05  2.57e-04  4.84e-05    32.0
   12    -395.7112694106783692    -1.90e-07  4.90e-06  1.05e-04  4.51e-05    24.9
                 **** Energy Check signals convergence ****

               *****************************************************
               *                     SUCCESS                       *
               *           SCF CONVERGED AFTER  12 CYCLES          *
               *****************************************************

 done (  113.320 sec)
Old exchange energy                            :    -40.323225896 Eh
New exchange energy                            :    -40.323238093 Eh
Exchange energy change after final integration :     -0.000012197 Eh
Total energy after final integration           :   -395.711281874 Eh
             **** ENERGY FILE WAS UPDATED (conf_002.en.tmp) ****

----------------
TOTAL SCF ENERGY
----------------

Total Energy       :       -395.71128187397585 Eh          -10767.85141 eV

Components:
Nuclear Repulsion  :       1934.99635309262635 Eh           52653.92764 eV
Electronic Energy  :      -2330.70762276970618 Eh          -63421.77872 eV
One Electron Energy:      -4486.05144456422022 Eh         -122071.66581 eV
Two Electron Energy:       2155.34382179451404 Eh           58649.88709 eV

Virial components:
Potential Energy   :       -709.37712841663097 Eh          -19303.13302 eV
Kinetic Energy     :        313.66584654265512 Eh            8535.28161 eV
Virial Ratio       :          2.26156955319062

DFT components:
N(Alpha)           :       98.000089801721 electrons
N(Beta)            :       98.000089801721 electrons
N(Total)           :      196.000179603443 electrons
E(X)               :      -51.262397255253 Eh       
E(C)               :       -7.928860039463 Eh       
E(XC)              :      -59.191257294716 Eh       

---------------
SCF CONVERGENCE
---------------

  Last Energy change         ...    1.8999e-07  Tolerance :   1.0000e-06
  Last MAX-Density change    ...    1.0480e-04  Tolerance :   1.0000e-05
  Last RMS-Density change    ...    4.8967e-06  Tolerance :   1.0000e-06
  Last DIIS Error            ...    2.6791e-03  Tolerance :   1.0000e-06
  Last Orbital Gradient      ...    4.5079e-05  Tolerance :   5.0000e-05
  Last Orbital Rotation      ...    1.7971e-04  Tolerance :   5.0000e-05


----------------
ORBITAL ENERGIES
----------------

  NO   OCC          E(Eh)            E(eV) 
   0   2.0000      -1.387421       -37.7536 
   1   2.0000      -1.382663       -37.6242 
   2   2.0000      -1.380434       -37.5635 
   3   2.0000      -1.380112       -37.5548 
   4   2.0000      -1.379655       -37.5423 
   5   2.0000      -1.376362       -37.4527 
   6   2.0000      -1.372491       -37.3474 
   7   2.0000      -1.367063       -37.1997 
   8   2.0000      -1.278459       -34.7886 
   9   2.0000      -1.183911       -32.2159 
  10   2.0000      -1.060471       -28.8569 
  11   2.0000      -1.052892       -28.6506 
  12   2.0000      -1.042226       -28.3604 
  13   2.0000      -1.030435       -28.0396 
  14   2.0000      -0.986009       -26.8307 
  15   2.0000      -0.963203       -26.2101 
  16   2.0000      -0.949295       -25.8316 
  17   2.0000      -0.922400       -25.0998 
  18   2.0000      -0.921298       -25.0698 
  19   2.0000      -0.917664       -24.9709 
  20   2.0000      -0.916912       -24.9504 
  21   2.0000      -0.915788       -24.9199 
  22   2.0000      -0.897796       -24.4303 
  23   2.0000      -0.856775       -23.3140 
  24   2.0000      -0.834658       -22.7122 
  25   2.0000      -0.802077       -21.8256 
  26   2.0000      -0.797413       -21.6987 
  27   2.0000      -0.793721       -21.5983 
  28   2.0000      -0.778837       -21.1932 
  29   2.0000      -0.777558       -21.1584 
  30   2.0000      -0.773994       -21.0615 
  31   2.0000      -0.763607       -20.7788 
  32   2.0000      -0.736931       -20.0529 
  33   2.0000      -0.733969       -19.9723 
  34   2.0000      -0.713319       -19.4104 
  35   2.0000      -0.710148       -19.3241 
  36   2.0000      -0.694105       -18.8875 
  37   2.0000      -0.690257       -18.7828 
  38   2.0000      -0.686105       -18.6699 
  39   2.0000      -0.683568       -18.6008 
  40   2.0000      -0.679540       -18.4912 
  41   2.0000      -0.669410       -18.2156 
  42   2.0000      -0.654489       -17.8096 
  43   2.0000      -0.643462       -17.5095 
  44   2.0000      -0.642569       -17.4852 
  45   2.0000      -0.639595       -17.4043 
  46   2.0000      -0.639544       -17.4029 
  47   2.0000      -0.637807       -17.3556 
  48   2.0000      -0.634814       -17.2742 
  49   2.0000      -0.632973       -17.2241 
  50   2.0000      -0.628507       -17.1025 
  51   2.0000      -0.619210       -16.8496 
  52   2.0000      -0.616522       -16.7764 
  53   2.0000      -0.614749       -16.7282 
  54   2.0000      -0.610464       -16.6116 
  55   2.0000      -0.607534       -16.5318 
  56   2.0000      -0.606032       -16.4910 
  57   2.0000      -0.604563       -16.4510 
  58   2.0000      -0.600266       -16.3341 
  59   2.0000      -0.597589       -16.2612 
  60   2.0000      -0.590115       -16.0579 
  61   2.0000      -0.588372       -16.0104 
  62   2.0000      -0.585627       -15.9357 
  63   2.0000      -0.580230       -15.7889 
  64   2.0000      -0.574718       -15.6389 
  65   2.0000      -0.567906       -15.4535 
  66   2.0000      -0.564534       -15.3617 
  67   2.0000      -0.558735       -15.2039 
  68   2.0000      -0.544347       -14.8124 
  69   2.0000      -0.540338       -14.7033 
  70   2.0000      -0.537114       -14.6156 
  71   2.0000      -0.533782       -14.5250 
  72   2.0000      -0.530266       -14.4293 
  73   2.0000      -0.522756       -14.2249 
  74   2.0000      -0.519521       -14.1369 
  75   2.0000      -0.517163       -14.0727 
  76   2.0000      -0.511444       -13.9171 
  77   2.0000      -0.508989       -13.8503 
  78   2.0000      -0.502646       -13.6777 
  79   2.0000      -0.501484       -13.6461 
  80   2.0000      -0.499416       -13.5898 
  81   2.0000      -0.494583       -13.4583 
  82   2.0000      -0.491478       -13.3738 
  83   2.0000      -0.489662       -13.3244 
  84   2.0000      -0.481522       -13.1029 
  85   2.0000      -0.465339       -12.6625 
  86   2.0000      -0.463120       -12.6021 
  87   2.0000      -0.461998       -12.5716 
  88   2.0000      -0.456730       -12.4283 
  89   2.0000      -0.422680       -11.5017 
  90   2.0000      -0.401928       -10.9370 
  91   2.0000      -0.388546       -10.5729 
  92   2.0000      -0.370903       -10.0928 
  93   2.0000      -0.370061       -10.0699 
  94   2.0000      -0.369539       -10.0557 
  95   2.0000      -0.368116       -10.0170 
  96   2.0000      -0.351998        -9.5784 
  97   2.0000      -0.336361        -9.1529 
  98   0.0000      -0.010946        -0.2979 
  99   0.0000       0.016225         0.4415 
 100   0.0000       0.045119         1.2278 
 101   0.0000       0.046768         1.2726 
 102   0.0000       0.047621         1.2958 
 103   0.0000       0.048842         1.3291 
 104   0.0000       0.049610         1.3500 
 105   0.0000       0.074275         2.0211 
 106   0.0000       0.078224         2.1286 
 107   0.0000       0.083931         2.2839 
 108   0.0000       0.086236         2.3466 
*Only the first 10 virtual orbitals were printed.

                    ********************************
                    * MULLIKEN POPULATION ANALYSIS *
                    ********************************

-----------------------
MULLIKEN ATOMIC CHARGES
-----------------------
   0 C :   -0.058975
   1 C :   -0.066138
   2 C :   -0.046475
   3 C :   -0.041601
   4 C :    0.036146
   5 C :    0.200486
   6 F :   -0.227780
   7 C :   -0.130922
   8 C :   -0.084542
   9 C :    0.065502
  10 C :    0.225877
  11 F :   -0.205409
  12 C :   -0.155339
  13 C :    0.284057
  14 O :   -0.278658
  15 O :   -0.224342
  16 C :    0.061570
  17 C :    0.055092
  18 C :    0.190235
  19 F :   -0.230656
  20 C :   -0.107650
  21 C :   -0.079044
  22 C :    0.060584
  23 C :    0.170677
  24 F :   -0.215218
  25 C :    0.193153
  26 F :   -0.209583
  27 C :    0.174580
  28 F :   -0.216861
  29 C :    0.025834
  30 C :    0.034271
  31 C :    0.040539
  32 C :    0.241394
  33 F :   -0.215643
  34 C :    0.069652
  35 C :    0.199488
  36 F :   -0.226497
  37 C :    0.026264
  38 H :    0.036579
  39 H :    0.027236
  40 H :    0.043103
  41 H :    0.038217
  42 H :    0.037242
  43 H :    0.051000
  44 H :    0.039121
  45 H :    0.032793
  46 H :    0.049980
  47 H :    0.042040
  48 H :    0.047714
  49 H :    0.045097
  50 H :    0.037921
  51 H :    0.054073
  52 H :    0.048465
  53 H :    0.035353
Sum of atomic charges:   -0.0000000

--------------------------------
MULLIKEN REDUCED ORBITAL CHARGES
--------------------------------
  0 C s       :     0.936528  s :     0.936528
      pz      :     1.023105  p :     3.048729
      px      :     1.044657
      py      :     0.980966
      dz2     :     0.014872  d :     0.073719
      dxz     :     0.012316
      dyz     :     0.016581
      dx2y2   :     0.020635
      dxy     :     0.009314

  1 C s       :     0.998004  s :     0.998004
      pz      :     0.999565  p :     2.966552
      px      :     1.045119
      py      :     0.921868
      dz2     :     0.021670  d :     0.101582
      dxz     :     0.015519
      dyz     :     0.021035
      dx2y2   :     0.029120
      dxy     :     0.014239

  2 C s       :     0.964884  s :     0.964884
      pz      :     1.045761  p :     2.981781
      px      :     0.929654
      py      :     1.006367
      dz2     :     0.018633  d :     0.099810
      dxz     :     0.020428
      dyz     :     0.016986
      dx2y2   :     0.025161
      dxy     :     0.018601

  3 C s       :     1.042544  s :     1.042544
      pz      :     0.967969  p :     2.870477
      px      :     0.975789
      py      :     0.926719
      dz2     :     0.029501  d :     0.128581
      dxz     :     0.036575
      dyz     :     0.021521
      dx2y2   :     0.017699
      dxy     :     0.023286

  4 C s       :     0.960057  s :     0.960057
      pz      :     0.979546  p :     2.916917
      px      :     0.917593
      py      :     1.019779
      dz2     :     0.022211  d :     0.086880
      dxz     :     0.022007
      dyz     :     0.009936
      dx2y2   :     0.013562
      dxy     :     0.019164

  5 C s       :     1.059318  s :     1.059318
      pz      :     0.787356  p :     2.554995
      px      :     0.874717
      py      :     0.892922
      dz2     :     0.045323  d :     0.185200
      dxz     :     0.051083
      dyz     :     0.030511
      dx2y2   :     0.023558
      dxy     :     0.034725

  6 F s       :     1.886172  s :     1.886172
      pz      :     1.652436  p :     5.318011
      px      :     1.797205
      py      :     1.868370
      dz2     :     0.005885  d :     0.023598
      dxz     :     0.007188
      dyz     :     0.004889
      dx2y2   :     0.002549
      dxy     :     0.003087

  7 C s       :     0.989986  s :     0.989986
      pz      :     0.974444  p :     3.029937
      px      :     0.971735
      py      :     1.083758
      dz2     :     0.021975  d :     0.110999
      dxz     :     0.033302
      dyz     :     0.017130
      dx2y2   :     0.015087
      dxy     :     0.023505

  8 C s       :     1.015282  s :     1.015282
      pz      :     0.998078  p :     2.938689
      px      :     0.976525
      py      :     0.964085
      dz2     :     0.032321  d :     0.130570
      dxz     :     0.031258
      dyz     :     0.018524
      dx2y2   :     0.022026
      dxy     :     0.026442

  9 C s       :     0.970445  s :     0.970445
      pz      :     0.966245  p :     2.877205
      px      :     0.914440
      py      :     0.996520
      dz2     :     0.018386  d :     0.086848
      dxz     :     0.023988
      dyz     :     0.011675
      dx2y2   :     0.013984
      dxy     :     0.018816

 10 C s       :     1.064755  s :     1.064755
      pz      :     0.742115  p :     2.519971
      px      :     0.917644
      py      :     0.860211
      dz2     :     0.045896  d :     0.189398
      dxz     :     0.051896
      dyz     :     0.029471
      dx2y2   :     0.026543
      dxy     :     0.035592

 11 F s       :     1.884245  s :     1.884245
      pz      :     1.598913  p :     5.296912
      px      :     1.873141
      py      :     1.824858
      dz2     :     0.007348  d :     0.024253
      dxz     :     0.005881
      dyz     :     0.006412
      dx2y2   :     0.002147
      dxy     :     0.002465

 12 C s       :     1.011211  s :     1.011211
      pz      :     1.000818  p :     3.045184
      px      :     0.915633
      py      :     1.128733
      dz2     :     0.024083  d :     0.098944
      dxz     :     0.026232
      dyz     :     0.014421
      dx2y2   :     0.017161
      dxy     :     0.017047

 13 C s       :     1.078879  s :     1.078879
      pz      :     0.770582  p :     2.357161
      px      :     0.897585
      py      :     0.688994
      dz2     :     0.084333  d :     0.279904
      dxz     :     0.075535
      dyz     :     0.060396
      dx2y2   :     0.030085
      dxy     :     0.029555

 14 O s       :     1.762061  s :     1.762061
      pz      :     1.391881  p :     4.477800
      px      :     1.685570
      py      :     1.400348
      dz2     :     0.011854  d :     0.038797
      dxz     :     0.009551
      dyz     :     0.011308
      dx2y2   :     0.002549
      dxy     :     0.003536

 15 O s       :     1.652779  s :     1.652779
      pz      :     1.493565  p :     4.528740
      px      :     1.308726
      py      :     1.726450
      dz2     :     0.012147  d :     0.042823
      dxz     :     0.008883
      dyz     :     0.006403
      dx2y2   :     0.008431
      dxy     :     0.006959

 16 C s       :     1.041963  s :     1.041963
      pz      :     1.042839  p :     2.725429
      px      :     0.707050
      py      :     0.975539
      dz2     :     0.036623  d :     0.171039
      dxz     :     0.046712
      dyz     :     0.023440
      dx2y2   :     0.026363
      dxy     :     0.037902

 17 C s       :     0.975438  s :     0.975438
      pz      :     0.966682  p :     2.886371
      px      :     0.934145
      py      :     0.985544
      dz2     :     0.018392  d :     0.083099
      dxz     :     0.023457
      dyz     :     0.013397
      dx2y2   :     0.010386
      dxy     :     0.017467

 18 C s       :     1.055995  s :     1.055995
      pz      :     0.702130  p :     2.569770
      px      :     0.939328
      py      :     0.928311
      dz2     :     0.046744  d :     0.184001
      dxz     :     0.053787
      dyz     :     0.034440
      dx2y2   :     0.018890
      dxy     :     0.030140

 19 F s       :     1.886219  s :     1.886219
      pz      :     1.530149  p :     5.320873
      px      :     1.903249
      py      :     1.887475
      dz2     :     0.008922  d :     0.023565
      dxz     :     0.005924
      dyz     :     0.006383
      dx2y2   :     0.001100
      dxy     :     0.001236

 20 C s       :     0.993353  s :     0.993353
      pz      :     0.995950  p :     2.995883
      px      :     0.967700
      py      :     1.032233
      dz2     :     0.024507  d :     0.118414
      dxz     :     0.036318
      dyz     :     0.019308
      dx2y2   :     0.015373
      dxy     :     0.022909

 21 C s       :     0.999423  s :     0.999423
      pz      :     0.977447  p :     2.951277
      px      :     0.984996
      py      :     0.988835
      dz2     :     0.031040  d :     0.128343
      dxz     :     0.031863
      dyz     :     0.017818
      dx2y2   :     0.021576
      dxy     :     0.026046

 22 C s       :     0.973898  s :     0.973898
      pz      :     0.964935  p :     2.876765
      px      :     0.923048
      py      :     0.988782
      dz2     :     0.018219  d :     0.088753
      dxz     :     0.024956
      dyz     :     0.011889
      dx2y2   :     0.013766
      dxy     :     0.019923

 23 C s       :     1.058188  s :     1.058188
      pz      :     0.738895  p :     2.587768
      px      :     0.940891
      py      :     0.907982
      dz2     :     0.044163  d :     0.183368
      dxz     :     0.052237
      dyz     :     0.028865
      dx2y2   :     0.023584
      dxy     :     0.034520

 24 F s       :     1.887946  s :     1.887946
      pz      :     1.582766  p :     5.303367
      px      :     1.892056
      py      :     1.828544
      dz2     :     0.007685  d :     0.023905
      dxz     :     0.005460
      dyz     :     0.006708
      dx2y2   :     0.001941
      dxy     :     0.002111

 25 C s       :     1.045734  s :     1.045734
      pz      :     0.940113  p :     2.585963
      px      :     0.651654
      py      :     0.994195
      dz2     :     0.030688  d :     0.175150
      dxz     :     0.054078
      dyz     :     0.015162
      dx2y2   :     0.028680
      dxy     :     0.046543

 26 F s       :     1.889046  s :     1.889046
      pz      :     1.927420  p :     5.296115
      px      :     1.450235
      py      :     1.918460
      dz2     :     0.002968  d :     0.024423
      dxz     :     0.006209
      dyz     :     0.000269
      dx2y2   :     0.008087
      dxy     :     0.006888

 27 C s       :     1.058022  s :     1.058022
      pz      :     0.820202  p :     2.584442
      px      :     0.853128
      py      :     0.911113
      dz2     :     0.045389  d :     0.182956
      dxz     :     0.045432
      dyz     :     0.026619
      dx2y2   :     0.029264
      dxy     :     0.036252

 28 F s       :     1.888335  s :     1.888335
      pz      :     1.707598  p :     5.304654
      px      :     1.752463
      py      :     1.844592
      dz2     :     0.004883  d :     0.023873
      dxz     :     0.007071
      dyz     :     0.004333
      dx2y2   :     0.003352
      dxy     :     0.004232

 29 C s       :     0.969193  s :     0.969193
      pz      :     0.981245  p :     2.916120
      px      :     0.913450
      py      :     1.021425
      dz2     :     0.019210  d :     0.088854
      dxz     :     0.021417
      dyz     :     0.010543
      dx2y2   :     0.016008
      dxy     :     0.021676

 30 C s       :     0.984938  s :     0.984938
      pz      :     0.955230  p :     2.882797
      px      :     0.975659
      py      :     0.951908
      dz2     :     0.019011  d :     0.097994
      dxz     :     0.034723
      dyz     :     0.014097
      dx2y2   :     0.010783
      dxy     :     0.019380

 31 C s       :     0.971159  s :     0.971159
      pz      :     0.980445  p :     2.897896
      px      :     0.945681
      py      :     0.971770
      dz2     :     0.018995  d :     0.090406
      dxz     :     0.029478
      dyz     :     0.010089
      dx2y2   :     0.011488
      dxy     :     0.020355

 32 C s       :     1.058121  s :     1.058121
      pz      :     0.789429  p :     2.512223
      px      :     0.857440
      py      :     0.865355
      dz2     :     0.045418  d :     0.188262
      dxz     :     0.049510
      dyz     :     0.027571
      dx2y2   :     0.028780
      dxy     :     0.036983

 33 F s       :     1.884434  s :     1.884434
      pz      :     1.680544  p :     5.307225
      px      :     1.794585
      py      :     1.832096
      dz2     :     0.005537  d :     0.023983
      dxz     :     0.006695
      dyz     :     0.004985
      dx2y2   :     0.003010
      dxy     :     0.003756

 34 C s       :     0.969427  s :     0.969427
      pz      :     0.981793  p :     2.873935
      px      :     0.893590
      py      :     0.998552
      dz2     :     0.019226  d :     0.086986
      dxz     :     0.021676
      dyz     :     0.011095
      dx2y2   :     0.015296
      dxy     :     0.019693

 35 C s       :     1.059661  s :     1.059661
      pz      :     0.722675  p :     2.555729
      px      :     0.931171
      py      :     0.901883
      dz2     :     0.045728  d :     0.185122
      dxz     :     0.053220
      dyz     :     0.032351
      dx2y2   :     0.021128
      dxy     :     0.032695

 36 F s       :     1.886252  s :     1.886252
      pz      :     1.567280  p :     5.316609
      px      :     1.878972
      py      :     1.870357
      dz2     :     0.007993  d :     0.023636
      dxz     :     0.006182
      dyz     :     0.006095
      dx2y2   :     0.001554
      dxy     :     0.001812

 37 C s       :     0.961914  s :     0.961914
      pz      :     0.986845  p :     2.924607
      px      :     0.928433
      py      :     1.009330
      dz2     :     0.020255  d :     0.087215
      dxz     :     0.025412
      dyz     :     0.011419
      dx2y2   :     0.012326
      dxy     :     0.017803

 38 H s       :     0.918282  s :     0.918282
      pz      :     0.013943  p :     0.045138
      px      :     0.011949
      py      :     0.019246

 39 H s       :     0.928055  s :     0.928055
      pz      :     0.020680  p :     0.044709
      px      :     0.013620
      py      :     0.010409

 40 H s       :     0.910784  s :     0.910784
      pz      :     0.011194  p :     0.046113
      px      :     0.023752
      py      :     0.011167

 41 H s       :     0.918186  s :     0.918186
      pz      :     0.010352  p :     0.043596
      px      :     0.022453
      py      :     0.010792

 42 H s       :     0.919248  s :     0.919248
      pz      :     0.019895  p :     0.043510
      px      :     0.013047
      py      :     0.010568

 43 H s       :     0.904480  s :     0.904480
      pz      :     0.013551  p :     0.044520
      px      :     0.011222
      py      :     0.019747

 44 H s       :     0.916929  s :     0.916929
      pz      :     0.021076  p :     0.043950
      px      :     0.012860
      py      :     0.010014

 45 H s       :     0.916014  s :     0.916014
      pz      :     0.023477  p :     0.051192
      px      :     0.011875
      py      :     0.015840

 46 H s       :     0.897825  s :     0.897825
      pz      :     0.020433  p :     0.052195
      px      :     0.015571
      py      :     0.016191

 47 H s       :     0.906150  s :     0.906150
      pz      :     0.019177  p :     0.051810
      px      :     0.017160
      py      :     0.015473

 48 H s       :     0.899977  s :     0.899977
      pz      :     0.019440  p :     0.052308
      px      :     0.016897
      py      :     0.015972

 49 H s       :     0.902405  s :     0.902405
      pz      :     0.023125  p :     0.052498
      px      :     0.011988
      py      :     0.017384

 50 H s       :     0.910797  s :     0.910797
      pz      :     0.018808  p :     0.051282
      px      :     0.017158
      py      :     0.015317

 51 H s       :     0.891651  s :     0.891651
      pz      :     0.025974  p :     0.054276
      px      :     0.013544
      py      :     0.014759

 52 H s       :     0.899276  s :     0.899276
      pz      :     0.023306  p :     0.052258
      px      :     0.012562
      py      :     0.016390

 53 H s       :     0.913805  s :     0.913805
      pz      :     0.020547  p :     0.050842
      px      :     0.014815
      py      :     0.015481



                     *******************************
                     * LOEWDIN POPULATION ANALYSIS *
                     *******************************

----------------------
LOEWDIN ATOMIC CHARGES
----------------------
   0 C :   -0.109542
   1 C :   -0.080075
   2 C :   -0.072107
   3 C :   -0.018294
   4 C :   -0.031026
   5 C :    0.047934
   6 F :   -0.066841
   7 C :   -0.038167
   8 C :   -0.016979
   9 C :   -0.015078
  10 C :    0.056553
  11 F :   -0.050296
  12 C :   -0.030766
  13 C :   -0.027228
  14 O :   -0.096646
  15 O :    0.033086
  16 C :   -0.008517
  17 C :   -0.010575
  18 C :    0.042487
  19 F :   -0.069035
  20 C :   -0.039242
  21 C :   -0.031770
  22 C :   -0.013503
  23 C :    0.038482
  24 F :   -0.060686
  25 C :    0.038351
  26 F :   -0.056029
  27 C :    0.037426
  28 F :   -0.062136
  29 C :   -0.021023
  30 C :   -0.013614
  31 C :   -0.026967
  32 C :    0.052511
  33 F :   -0.059309
  34 C :   -0.016634
  35 C :    0.048301
  36 F :   -0.065523
  37 C :   -0.031701
  38 H :    0.046669
  39 H :    0.041514
  40 H :    0.042677
  41 H :    0.047400
  42 H :    0.044329
  43 H :    0.056232
  44 H :    0.053479
  45 H :    0.054483
  46 H :    0.059334
  47 H :    0.061039
  48 H :    0.058710
  49 H :    0.057257
  50 H :    0.055834
  51 H :    0.052954
  52 H :    0.058748
  53 H :    0.053516

-------------------------------
LOEWDIN REDUCED ORBITAL CHARGES
-------------------------------
  0 C s       :     0.765709  s :     0.765709
      pz      :     1.040980  p :     3.098425
      px      :     1.063676
      py      :     0.993770
      dz2     :     0.049957  d :     0.245407
      dxz     :     0.040754
      dyz     :     0.053699
      dx2y2   :     0.068893
      dxy     :     0.032104

[...]
  28 F       0.078270     -0.097800      0.061166      0.038161     -0.064918      0.026463      0.083741     -0.074312      0.023706      0.053319
  29 C       0.466188      0.022663      0.015231      0.213815     -0.293523     -0.002253      0.097150     -0.192031     -0.000415      0.097903
  30 C      -0.469164      0.034497     -0.436353     -0.072699      0.124468      0.010255      0.050952      0.231210      0.043324     -0.130911
  31 C       0.486157     -0.033029     -0.236549     -0.096038     -0.262540     -0.071116     -0.080574     -0.319879      0.015529     -0.092830
  32 C      -0.511752      0.102686      0.236701      0.025291     -0.022548     -0.021724      0.137266      0.162872      0.039511      0.050783
  33 F      -0.031355     -0.102879     -0.038747      0.026534      0.049981     -0.000296     -0.076051     -0.109780     -0.015052      0.064486
  34 C       0.587485      0.007154      0.008082      0.168798      0.227436     -0.017506     -0.100971     -0.224318     -0.039280      0.119941
  35 C      -0.484930      0.100035     -0.139236      0.070197     -0.176636     -0.054885     -0.102262      0.212095     -0.072884     -0.007448
  36 F      -0.018221     -0.071089     -0.049668     -0.001329      0.013797      0.010773      0.043668     -0.131884      0.060603      0.083609
  37 C       0.562892     -0.144258     -0.224757      0.035801     -0.004631     -0.012852      0.092175     -0.282215     -0.013296      0.103267
  38 H       0.036915      0.028364      0.056273      0.004736      0.021365      0.005503      0.000925      0.002686      0.009395      0.008453
  39 H       0.045452     -0.023011     -0.029883     -0.012781     -0.006611      0.005275     -0.000593      0.007843     -0.017569     -0.007886
  40 H      -0.063257     -0.028077      0.009016     -0.011822      0.000808     -0.019835      0.000060     -0.026319     -0.007479     -0.010007
  41 H       0.046338      0.001846     -0.029967      0.002150     -0.010732      0.023841      0.000406      0.023614      0.000477      0.000626
  42 H      -0.062407      0.005478      0.019223      0.003966      0.004692     -0.014508      0.000175     -0.015847      0.016094      0.001445
  43 H       0.010640     -0.035697      0.050508     -0.010651      0.017428     -0.004696     -0.001557     -0.003595      0.009179     -0.010995
  44 H       0.021998      0.025557     -0.039625      0.010357     -0.011223     -0.002175     -0.000934      0.000776     -0.019275      0.006186
  45 H       0.030407     -0.012101      0.037012     -0.004154      0.014920      0.006739     -0.000472      0.007180      0.010240     -0.006075
  46 H       0.042184     -0.016034     -0.033010     -0.008321     -0.010160      0.009690      0.000839      0.010544     -0.009972     -0.007624
  47 H       0.034642      0.010145      0.034155      0.004026      0.010280      0.009900      0.000548      0.010863      0.009523      0.005255
  48 H       0.043389     -0.016507      0.031866     -0.008577      0.008999      0.010147     -0.000703      0.011375      0.009862     -0.007658
  49 H       0.026459      0.024416     -0.037988      0.011935     -0.013907      0.006365     -0.000862      0.007504     -0.011505      0.010781
  50 H      -0.043678     -0.017301     -0.043904     -0.009667     -0.012562     -0.009686      0.000998     -0.008779     -0.010684     -0.008704
  51 H       0.019736     -0.004846     -0.056809     -0.005574     -0.020251      0.003320     -0.001077      0.004254     -0.016293     -0.002757
  52 H       0.034164      0.016729      0.038273      0.008401      0.014147      0.007494      0.000922      0.008062      0.011612      0.008250
  53 H       0.031264      0.013183     -0.032621      0.006934     -0.010893      0.009410      0.000495      0.008881     -0.009809      0.006494

 MBIS THIRD RADIAL MOMENT (A.U.):
  ATOM      <r^3>
   0 C   43.727783
   1 C   41.133055
   2 C   41.783467
   3 C   33.354326
   4 C   41.034580
   5 C   29.817439
   6 F   18.092702
   7 C   38.867545
   8 C   32.196042
   9 C   40.448944
  10 C   28.776376
  11 F   18.097011
  12 C   41.921417
  13 C   22.333522
  14 O   25.783786
  15 O   23.901211
  16 C   29.545711
  17 C   41.025662
  18 C   29.885489
  19 F   18.114207
  20 C   37.134021
  21 C   33.518453
  22 C   39.677169
  23 C   31.619955
  24 F   18.092201
  25 C   33.829254
  26 F   17.901703
  27 C   31.641530
  28 F   18.104358
  29 C   39.923490
  30 C   36.402145
  31 C   39.883907
  32 C   28.915827
  33 F   18.092365
  34 C   40.511092
  35 C   29.755574
  36 F   18.076486
  37 C   41.325161
  38 H    2.384226
  39 H    2.421787
  40 H    2.219328
  41 H    2.344370
  42 H    2.300699
  43 H    2.238782
  44 H    2.214839
  45 H    2.008282
  46 H    1.907781
  47 H    1.903536
  48 H    1.925456
  49 H    1.967335
  50 H    2.130236
  51 H    1.915564
  52 H    1.913795
  53 H    2.005477

-------------------------
RESP CHARGES GENERATION
-------------------------
Number of atoms                    ...           54
Number of "pure atoms"             ...           54
Grid spacing                       ...     0.300000
Point Cut-Off                      ...     2.800000
Van-der-Waals Radii                ...        COSMO
Total charge                       ...            0
Penalty function                   ... hyperbolic
Penalty function wa                ... 0.000500
Penalty function wb                ... 0.100000
Dipole moment constraint           ...        FALSE
Equivalent atom charge constraint  ...        FALSE

Grid generated                     ...      0.0 sec
Grid points                        ...        28062
Potential calculated               ...     10.5 sec
RespFile stored                    ...           ok

Iter     dqmax
--------------

0     0.896048
1     0.038401
2     0.004527
3     0.000556
4     0.000068
5     0.000008
6     0.000001
7     0.000000

Charges calculated                 ...      1.4 sec

RESP Charges            
--------------------------------
  0   C   :      -0.374143
  1   C   :       0.266095
  2   C   :      -0.293822
  3   C   :       0.280230
  4   C   :      -0.404782
  5   C   :       0.359446
  6   F   :      -0.201969
  7   C   :      -0.327438
  8   C   :       0.443722
  9   C   :      -0.530575
 10   C   :       0.527702
 11   F   :      -0.212736
 12   C   :      -0.568934
 13   C   :       0.890144
 14   O   :      -0.523452
 15   O   :      -0.377823
 16   C   :       0.422691
 17   C   :      -0.458049
 18   C   :       0.343261
 19   F   :      -0.197420
 20   C   :      -0.015430
 21   C   :       0.150811
 22   C   :      -0.441905
 23   C   :       0.331320
 24   F   :      -0.187649
 25   C   :       0.093175
 26   F   :      -0.150225
 27   C   :       0.296207
 28   F   :      -0.181127
 29   C   :      -0.412966
 30   C   :      -0.153345
 31   C   :      -0.390863
 32   C   :       0.506005
 33   F   :      -0.210645
 34   C   :      -0.527453
 35   C   :       0.434243
 36   F   :      -0.206993
 37   C   :      -0.516686
 38   H   :       0.081655
 39   H   :       0.094680
 40   H   :       0.107483
 41   H   :      -0.023639
 42   H   :      -0.023312
 43   H   :       0.078065
 44   H   :       0.111771
 45   H   :       0.212904
 46   H   :       0.247364
 47   H   :       0.250828
 48   H   :       0.247254
 49   H   :       0.234034
 50   H   :       0.175809
 51   H   :       0.239771
 52   H   :       0.251989
 53   H   :       0.234724
--------------------------------
Total charge:    -0.000000
--------------------------------

RESP charges calculated...

Timings:
Grid generation                 ...        0.023 sec (=   0.000 min)
Potential calculation           ...       10.500 sec (=   0.175 min)
Fit to the potential            ...        1.406 sec (=   0.023 min)
------------------------------------------------------------------------------

-------
TIMINGS
-------

Total SCF time: 0 days 0 hours 10 min 29 sec 

Total time                  ....     629.670 sec
Sum of individual times     ....     609.311 sec  ( 96.8%)

SCF preparation             ....       1.921 sec  (  0.3%)
Fock matrix formation       ....     491.437 sec  ( 78.0%)
  Startup                   ....       0.041 sec  (  0.0% of F)
  Split-RI-J                ....      36.956 sec  (  7.5% of F)
  Chain of spheres X        ....     459.090 sec  ( 93.4% of F)
  XC integration            ....      14.797 sec  (  3.0% of F)
    Basis function eval.    ....       4.120 sec  ( 27.8% of XC)
    Density eval.           ....       3.613 sec  ( 24.4% of XC)
    XC-Functional eval.     ....       0.981 sec  (  6.6% of XC)
    XC-Potential eval.      ....       4.348 sec  ( 29.4% of XC)
Diagonalization             ....       0.000 sec  (  0.0%)
Density matrix formation    ....       0.351 sec  (  0.1%)
Total Energy calculation    ....       0.187 sec  (  0.0%)
Population analysis         ....     112.819 sec  ( 17.9%)
Orbital Transformation      ....       0.282 sec  (  0.0%)
Orbital Orthonormalization  ....       0.000 sec  (  0.0%)
DIIS solution               ....       1.509 sec  (  0.2%)
SOSCF solution              ....       0.804 sec  (  0.1%)
Finished LeanSCF after 629.7 sec

Maximum memory used throughout the entire LEANSCF-calculation: 118.3 MB


-------------------------------------------------------------------------------
                          DFT DISPERSION CORRECTION                            
                                                                               
                                DFTD4 V3.4.0                                   
-------------------------------------------------------------------------------
The wB97X-3c composite method is recognized
Using three-body term ABC
Active option DFTDOPT                   ...         5   

-------------------------   ----------------
Dispersion correction           -0.088441731
-------------------------   ----------------


-------------------------   --------------------
FINAL SINGLE POINT ENERGY      -395.799723605077
-------------------------   --------------------



           ************************************************************
           *        Program running with 4 parallel MPI-processes     *
           *              working on a common directory               *
           ************************************************************

------------------------------------------------------------------------------
                              ORCA PROPERTY CALCULATIONS
------------------------------------------------------------------------------

GBWName                                 ... conf_002.gbw
Number of atoms                         ...     54
Number of basis functions               ...    574
Max core memory                         ...   4000 MB

Electric properties:
Dipole moment                           ... YES
Quadrupole moment                       ...  NO
Static polarizability (Dipole/Dipole)   ...  NO
Static polarizability (Dipole/Quad.)    ...  NO
Static polarizability (Quad./Quad.)     ...  NO
Static polarizability (Velocity)        ...  NO
Static hyperpolarizability              ...  NO

Atomic electric properties:
Dipole moment                           ...  NO
Quadrupole moment                       ...  NO
Static polarizability                   ...  NO

Choice of electric origin               ... Center of mass
Position of electric origin             ...    -2.774888    -0.319809     0.164141

General magnetic properties:
Magnetizability                         ...  NO

EPR properties:
g-Tensor (aka g-matrix)                 ...  NO
Zero-Field splitting spin-orbit         ...  NO
Zero-field splitting spin-spin          ...  NO
Hyperfine couplings                     ...  NO (   0 nuclei)
Quadrupole couplings                    ...  NO (   0 nuclei)
Contact density                         ...  NO (   0 nuclei)

NMR properties:
Chemical shifts                         ...  NO (   0 nuclei)
Spin-rotation constants                 ...  NO (   0 nuclei)
Spin-spin couplings                     ...  NO (   0 nuclei,    0 pairs)

Choice of magnetic origin               ... GIAO
Position of magnetic origin             ...     0.000000     0.000000     0.000000

Properties with geometric perturbations:
SCF Hessian                             ...  NO
IR spectrum                             ...  NO
VCD spectrum                            ...  NO
X-ray spectroscopy properties:
SCF XES/XAS/RIXS spectra                ...  NO

SCF SOC stabilization energy            ...  NO
Diagonal Born-Oppenheimer correction    ...  NO

-------------
DIPOLE MOMENT
-------------

Method             : SCF
Type of density    : Electron Density
Multiplicity       :   1
Irrep              :   0
Energy             :  -395.7112818739758495 Eh
Basis              : AO
                                X                 Y                 Z
Electronic contribution:    -65.498857158     -10.696056170       0.746178194
Nuclear contribution   :     69.280925551      10.578758532      -0.658401942
                        -----------------------------------------
Total Dipole Moment    :      3.782068394      -0.117297638       0.087776252
                        -----------------------------------------
Magnitude (a.u.)       :      3.784904852
Magnitude (Debye)      :      9.620463584



--------------------
Rotational spectrum 
--------------------
 
Rotational constants in cm-1:             0.012021             0.000778             0.000748 
Rotational constants in MHz :           360.379472            23.337143            22.426641 

Dipole components along the rotational axes: 
x,y,z [a.u.] :    -3.735525     0.499622     0.348908 
x,y,z [Debye]:    -9.494950     1.269939     0.886853 

 

Dipole moment calculation done in   0.0 sec 

Maximum memory used throughout the entire PROP-calculation: 58.2 MB

--------------------------------
SUGGESTED CITATIONS FOR THIS RUN
--------------------------------

Below you find a list of papers that are relevant to this ORCA run
We neither can nor want to force you to cite these papers, but we appreciate if you do
You receive ORCA, which is the product of decades of hard work by many enthusiastic individuals, for free
The only thing we kindly ask in return is that you cite our papers,
We deeply appreciate it, if you show your appreciation for ORCA by not just citing the generic ORCA reference.

Please note that relegating all ORCA citations to the supporting information does *not* help us.
SI sections are not indexed - citations you put there will not count into any citation statistics
But we need these citations in order to attract the funding resources that allow us to do what we are doing

Therefore, if you are a happy ORCA user, please consider citing a few of the papers listed below in the main body of your paper

In addition to the list printed below, the program has created the file conf_002.bibtex that contains the list in bibtex format
You can import this file easily into all common literature databanks and citation aid programs


List of essential papers. We consider these as the minimum necessary citations

  1. Mueller, M.; Hansen, A.; Grimme, S.
     wB97X-3c: A composite range-separated hybrid DFT method with a molecule-optimized polarized valence double-zeta basis set
     J. Chem. Phys. 2023 158 , 014103
     doi.org/10.1063/5.0133026
  2. Neese, F.
     Software update: the ORCA program system, version 6.0
     WIRES Comput. Molec. Sci. 2025 15(1), e70019
     doi.org/10.1002/wcms.7019

List of papers to cite with high priority. The work reported in these papers was absolutely
necessary for this run to complete.
Our perspective: the developers of density functionals and basis sets usually get cited in chemistry papers
Good! But without the algorithms to do something with them, the functionals or basis sets would not do anything.
Hence, in our opinion, the algorithm design and method developments papers are equally worthy of getting cited

  1. Neese, F.
     An improvement of the resolution of the identity approximation for the formation of the Coulomb matrix
     J. Comp. Chem. 2003 24(14), 1740-1747
     doi.org/10.1002/jcc.10318
  2. Neese, F.; Wennmohs, F.; Hansen, A.; Becker, U.
     Efficient, approximate and parallel Hartree-Fock and hybrid DFT calculations. A 'chain-of-spheres' algorithm for the Hartree-Fock exchange
     Chem. Phys. 2009 356(1-3), 98-109
     doi.org/10.1016/j.chemphys.2008.10.036
  3. Caldeweyher, E.; Bannwarth, C.; Grimme, S.
     Extension of the D3 dispersion coefficient model
     J. Chem. Phys. 2017 147 , 034112
     doi.org/10.1063/1.4993215
  4. Caldeweyher, E.; Ehlert, S.; Hansen, A.; Neugebauer, H.; Spicher, S.; Bannwarth, C.; Grimme, S.
     A generally applicable atomic-charge dependent London dispersion correction
     J. Chem. Phys. 2019 150 , 154122
     doi.org/10.1063/1.5090222
  5. Caldeweyher, E.; Mewes, J.; Ehlert, S.; Grimme, S.
     Extension and evaluation of the D4 London-dispersion model for periodic systems
     Phys. Chem. Chem. Phys. 2020 22(16), 8499-8512
     doi.org/10.1039/D0CP00502A
  6. Helmich-Paris, B.; de Souza, B.; Neese, F.; Izsák, R.
     An improved chain of spheres for exchange algorithm
     J. Chem. Phys. 2021 155(10), 104109
     doi.org/10.1063/5.0058766
  7. Neese, F.
     The SHARK Integral Generation and Digestion System
     J. Comp. Chem. 2022 44(3), 381
     doi.org/10.1002/jcc.26942
  8. Wittmann, L.; Gordiy, I.; Friede, M.; Helmich-Paris, B.; Grimme, S.; Hansen, A.; Bursch, M.
     Extension of the D3 and D4 London Dispersion Corrections to the full Actinides Series
     Phys. Chem. Chem. Phys. 2024 26(32), 21379-21394
     doi.org/10.1039/D4CP01514B

List of suggested additional citations. These are papers that are important in the 'surrounding' of 
of this run, or papers that preceded the highly important papers. If you like your results we are grateful for a citation.

  1. Izsak, R.; Neese, F.
     An overlap fitted chain of spheres exchange method
     J. Chem. Phys. 2011 135 , 144105
     doi.org/10.1063/1.3646921
  2. Izsak, R.; Hansen, A.; Neese, F.
     The resolution of identity and chain of spheres approximations for the LPNO-CCSD singles Fock term
     Molec. Phys. 2012 110 , 2413-2417
     doi.org/10.1080/00268976.2012.687466
  3. Neese, F.
     The ORCA program system
     WIRES Comput. Molec. Sci. 2012 2(1), 73-78
     doi.org/10.1002/wcms.81
  4. Izsak, R.; Neese, F.; Klopper, W.
     Robust fitting techniques in the chain of spheres approximation to the Fock exchange: The role of the complementary space
     J. Chem. Phys. 2013 139 , 
     doi.org/10.1063/1.4819264
  5. Neese, F.
     Software update: the ORCA program system, version 4.0
     WIRES Comput. Molec. Sci. 2018 8(1), 1-6
     doi.org/10.1002/wcms.1327
  6. Neese, F.; Wennmohs, F.; Becker, U.; Riplinger, C.
     The ORCA quantum chemistry program package
     J. Chem. Phys. 2020 152(22), 224108
     doi.org/10.1063/5.0004608
  7. Neese, F.
     Software update: The ORCA program system—Version 5.0
     WIRES Comput. Molec. Sci. 2022 12(1), e1606
     doi.org/10.1002/wcms.1606

List of optional additional citations

  1. Neese, F.
     Approximate second-order SCF convergence for spin unrestricted wavefunctions
     Chem. Phys. Lett. 2000 325(1-3), 93-98
     doi.org/10.1016/s0009-2614(00)00662-x

Timings for individual modules:

Sum of individual times          ...      648.080 sec (=  10.801 min)
Startup calculation              ...        9.249 sec (=   0.154 min)   1.4 %
SCF iterations                   ...      636.872 sec (=  10.615 min)  98.3 %
Property calculations            ...        1.959 sec (=   0.033 min)   0.3 %
                             ****ORCA TERMINATED NORMALLY****
TOTAL RUN TIME: 0 days 0 hours 10 minutes 50 seconds 163 msec
