Loading openmpi/5.0.6/gcc-14.2.0
  Loading requirement: gcc/14.2.0

                                 *****************
                                 * O   R   C   A *
                                 *****************

                                            #,                                       
                                            ###                                      
                                            ####                                     
                                            #####                                    
                                            ######                                   
                                           ########,                                 
                                     ,,################,,,,,                         
                               ,,#################################,,                 
                          ,,##########################################,,             
                       ,#########################################, ''#####,          
                    ,#############################################,,   '####,        
                  ,##################################################,,,,####,       
                ,###########''''           ''''###############################       
              ,#####''   ,,,,##########,,,,          '''####'''          '####       
            ,##' ,,,,###########################,,,                        '##       
           ' ,,###''''                  '''############,,,                           
         ,,##''                                '''############,,,,        ,,,,,,###''
      ,#''                                            '''#######################'''  
     '                                                          ''''####''''         
             ,#######,   #######,   ,#######,      ##                                
            ,#'     '#,  ##    ##  ,#'     '#,    #''#        ,####,    ,#,          
            ##       ##  ##   ,#'  ##            #'  '#       #'       ,# #          
            ##       ##  #######   ##           ,######,      #####,      #          
            '#,     ,#'  ##    ##  '#,     ,#' ,#      #,     #,   #      #          
             '#######'   ##     ##  '#######'  #'      '#     '####' #    #          



                #########################################################
                #                        -***-                          #
                #          Department of theory and spectroscopy        #
                #                                                       #
                #                      Frank Neese                      #
                #                                                       #
                #     Directorship, Architecture, Infrastructure        #
                #                    SHARK, DRIVERS                     #
                #        Core code/Algorithms in most modules           #
                #                                                       #
                #        Max Planck Institute fuer Kohlenforschung      #
                #                Kaiser Wilhelm Platz 1                 #
                #                 D-45470 Muelheim/Ruhr                 #
                #                      Germany                          #
                #                                                       #
                #                  All rights reserved                  #
                #                        -***-                          #
                #########################################################


                         Program Version 6.1.0  -  RELEASE   -
                                (GIT: $679e74b$)
                          ($2025-06-10 18:02:51 +0200$)


 With contributions from (in alphabetic order):
[Max-Planck-Institut fuer Kohlenforschung]                               
  Daniel Aravena         : Magnetic Suceptibility                        
  Michael Atanasov       : Ab Initio Ligand Field Theory (pilot matlab implementation)
  Alexander A. Auer      : GIAO ZORA, VPT2 properties, NMR spectrum      
  Ute Becker             : All parallelization in ORCA, NUMFREQ, NUMCALC 
  Giovanni Bistoni       : ED, misc. LED, open-shell LED, HFLD           
  Dmytro Bykov           : pre 5.0 version of the SCF Hessian            
  Marcos Casanova-Páez   : Triplet and SCS-CIS(D). UHF-(DLPNO)-IP/EA/STEOM-CCSD. UHF-CVS-IP/STEOM-CCSD   
  Vijay G. Chilkuri      : MRCI spin determinant printing, contributions to CSF-ICE 
  Pauline Colinet        : FMM embedding                                 
  Dipayan Datta          : RHF DLPNO-CCSD density                        
  Achintya Kumar Dutta   : EOM-CC, STEOM-CC                              
  Nicolas Foglia         : Exact transition moments, OPA infrastructure, MCD improvements    
  Dmitry Ganyushin       : Spin-Orbit,Spin-Spin,Magnetic field MRCI      
  Miquel Garcia-Rates    : C-PCM and meta-GGA Hessian, CCSD/C-PCM, Gaussian charge scheme 
  Tiago L. C. Gouveia    : GS-ROHF, GS-ROCIS                             
  Yang Guo               : DLPNO-NEVPT2, F12-NEVPT2, CIM, IAO-localization        
  Andreas Hansen         : Spin unrestricted coupled pair/coupled cluster methods 
  Ingolf Harden          : AUTO-CI MPn and infrastructure                
  Benjamin Helmich-Paris : MC-RPA, TRAH-(SCF,CASSCF), AVAS, COSX integrals, SCF dyn. polar., MC-PDFT, srDFT 
  Lee Huntington         : MR-EOM, pCC                                   
  Robert Izsak           : Overlap fitted RIJCOSX, COSX-SCS-MP3, EOM     
  Riya Kayal             : Wick's Theorem for AUTO-CI, AUTO-CI UHF-CCSDT 
  Emily Kempfer          : AUTO-CI RHF CISDT and CCSDT, approximate NEVPT4
  Christian Kollmar      : KDIIS, OOCD, Brueckner-CCSD(T), CCSD density, CASPT2, CASPT2-K, improved NEVPT2 
  Axel Koslowski         : Symmetry handling                             
  Simone Kossmann        : meta-GGA functionals, TD-DFT gradient, OOMP2, (MP2 Hessian; deprecated post 5.0) 
  Lucas Lang             : DCDCAS, Hyperfine gauge corrections, ICE-SOC+SSC
  Marvin Lechner         : AUTO-CI (C++ implementation), FIC-MRCC        
  Spencer Leger          : CASSCF response                               
  Dagmar Lenk            : GEPOL surface, SMD, ORCA-2-JSON               
  Dimitrios Liakos       : Extrapolation schemes; Compound Job, Property file
  Dimitrios Manganas     : Further ROCIS development; embedding schemes. LFT, Crystal Embedding 
  Dimitrios Pantazis     : SARC Basis sets                               
  Anastasios Papadopoulos: AUTO-CI, single reference methods and gradients 
  Taras Petrenko         : pre 6.0 DFT Hessian and TD-DFT gradient,  ECA, NRVS 
  Petra Pikulova         : Analytic Raman intensities                    
  Peter Pinski           : DLPNO-MP2, DLPNO-MP2 Gradient                 
  Shashank Vittal Rao    : ES-AILFT, MagRelax                            
  Christoph Reimann      : Effective Core Potentials                     
  Marius Retegan         : Local ZFS, SOC                                
  Christoph Riplinger    : Optimizer, TS searches, QM/MM, DLPNO-CCSD(T), (RO)-DLPNO pert. Triples 
  Michael Roemelt        : Original ROCIS implementation, recursive CI coupling coefficients
  Masaaki Saitow         : Open-shell DLPNO-CCSD energy and density      
  Barbara Sandhoefer     : DKH picture change effects                    
  Yorick L. A. Schmerwitz: GMF and freeze-and-release deltaSCF, NEB S-IDPP initial path                    
  Kantharuban Sivalingam : CASSCF convergence/infrastructure, NEVPT2, NEVPT3, NEVPT4(SD), FIC-MRCI and CEPA variants
  Bernardo de Souza      : ESD, SOC TD-DFT                               
  Georgi L. Stoychev     : AutoAux, RI-MP2 NMR, DLPNO-MP2 response, X2C  
  Van Anh Tran           : RI-MP2 g-tensors                              
  Willem Van den Heuvel  : Paramagnetic NMR                              
  Zikuan Wang            : NOTCH, Electric field optimization            
  Frank Wennmohs         : Technical directorship and infrastructure     
  Hang Xu                : AUTO-CI-Response properties                   
                                                                         
[FACCTs GmbH]                                                            
  Markus Bursch, Nicolas Foglia, Miquel Garcia-Rates, Ingolf Harden, Hagen Neugebauer, Anastasios Papadopoulos, 
  Christoph Riplinger, Bernardo de Souza, Georgi L. Stoychev                                                    
                                                                 
  APM, various basis sets, CI-OPT, improved COSX, DLPNO-Multilevel,           
  DOCKER, DRACO, updates on ESD, Fragmentator, GOAT, IRC, LR-CPCM, L-BFGS, MBIS, meta-GGA TD-DFT gradient, ML-optimized integration grids, 
  MM, NACMEs, nearIR, NEB, NEB-TS, NL-DFT gradient (VV10), 2- and 3-layer-ONIOM, interface openCOSMO-RS, QMMM,   
  Crystal-QMMM, RESP, rigid body optimization, SF, symmetry and pop. for TD-DFT, various functionals, SOLVATOR                                   
                                                                         
[Other institutions]                                                     
  V. Asgeirsson          : NEB                                           
  Christoph Bannwarth    : sTDA-DFT, sTD-DFT, PBEh-3c, B97-3c, D3        
  Giovanni Bistoni       : ETS/NOCV, ADLD/ADEX, COVALED                  
  Martin Brehm           : Molecular dynamics                            
  Ronald Cardenas        : ETS/NOCV                                      
  Martina Colucci        : COVALED                                       
  Sebastian Ehlert       : rSCAN, r2SCAN, r2SCAN-3c, D4, dhf basis sets  
  Marvin Friede          : D4 for Fr, Ra, Ac-Lr                          
  Lars Goerigk           : TD-DFT with DH, B97 family of functionals     
  Stefan Grimme          : VdW corrections, initial TS optimization, DFT functionals, gCP, sTDA/sTD-DF 
  Waldemar Hujo          : DFT-NL                                        
  H. Jonsson             : NEB                                           
  Holger Kruse           : gCP                                           
  Marcel Mueller         : wB97X-3c, vDZP basis set                      
  Hagen Neugebauer       : wr2SCAN, Native XTB                           
  Gianluca Regni         : ADLD/ADEX                                     
  Tobias Risthaus        : pre 6.0 range-separated hybrid DFT and stability analysis
  Lukas Wittmann         : regularized MP2, r2SCAN double-hybrids, wr2SCAN        
                                                                         
We gratefully acknowledge several colleagues who have allowed us to      
interface, adapt or use parts of their codes:                            
  Ed Valeev, F. Pavosevic, A. Kumar             : LibInt (2-el integral package), F12 methods 
  Garnet Chan, S. Sharma, J. Yang, R. Olivares  : DMRG                   
  Ulf Ekstrom                                   : XCFun DFT Library      
  Mihaly Kallay                                 : mrcc  (arbitrary order and MRCC methods)
  Frank Weinhold                                : gennbo (NPA and NBO analysis)           
  Simon Mueller                                 : openCOSMO-RS                            
  Christopher J. Cramer and Donald G. Truhlar   : smd solvation model                     
  S Lehtola, MJT Oliveira, MAL Marques          : LibXC Library                           
  Liviu Ungur et al                             : ANISO software                          


 Your calculation uses the libint2 library for the computation of 2-el integrals
 For citations please refer to: http://libint.valeyev.net

 Your ORCA version has been built with support for libXC version: 7.0.0
 For citations please refer to: https://libxc.gitlab.io

 This ORCA versions uses:
   CBLAS   interface :  Fast vector & matrix operations
   LAPACKE interface :  Fast linear algebra routines
   SCALAPACK package :  Parallel linear algebra routines
   Shared memory     :  Shared parallel matrices
   BLAS/LAPACK       :  OpenBLAS 0.3.29  USE64BITINT DYNAMIC_ARCH NO_AFFINITY Cooperlake SINGLE_THREADED
        Core in use  :  Cooperlake
   Copyright (c) 2011-2014, The OpenBLAS Project


  ***********************************
  * Starting time: Wed May 13 14:54:46 2026
  * Host name:     node045.aire.lee.alces.network
  * Process ID:    972975
  * Working dir.:  /tmp/job.4919715
  ***********************************

NOTE: MaxCore=4000 MB was set to SCF,MP2,MDCI,CIPSI,MRCI,RASCI and CIS
      => If you want to overwrite this, your respective input block should be placed after the MaxCore statement


***************************************
The coordinates will be read from file: conf_014.xyz
***************************************


Your calculation utilizes the atom-pairwise dispersion correction
based on EEQ partial charges (D4)


================================================================================

cite the ECPs for C  [vDZP-ECP], F  [vDZP-ECP], O  [vDZP-ECP] as follows:
   B-Ne (ecp-2-mwb), Al-Ar (ecp-10-mwb), Ga-Kr (ecp-28-mwb), Y-Cd (ecp-28-mwb), In-Xe (ecp-46-mwb):
     A. Bergner, M. Dolg, W. Küchle, H. Stoll, and H. Preuß, Mol. Phys. 80, 1431 (1993)., T. Leininger, A. Berning, A. Nicklass, H. Stoll, H.-J. Werner, and H.-J.Flad, Chem. Phys. 217, 19 (1997).
   Na-Mg, K-Ca, Rb-Sr, Cs-Ba (CRENBL):
     L. Fernandez Pacios and P. A. Christiansen, J. Chem. Phys. 82, 2664 (1985)., M. M. Hurley, L. F. Pacios, P. A. Christiansen, R. B. Ross, and W. C. Ermler, J. Chem. Phys. 84, 6840 (1986)., L. A. LaJohn, P. A. Christiansen, R. B. Ross, T. Atashroo, and W. C. Ermler, J. Chem. Phys. 87, 2812 (1987)., R. B. Ross, J. M. Powers, T. Atashroo, W. C. Ermler, L. A. LaJohn, and P. A. Christiansen, J. Chem. Phys. 93, 6654 (1990). 
   Sc-Zn (ecp-10-mdf):
     M. Dolg, U. Wedig, H. Stoll, and H. Preuss, J. Chem. Phys. 86, 866 (1986). 
   Y-Cd (ecp-28-mwb), Hf-Hg (ecp-60-mwb):
     D. Andrae, U. Häußermann, M. Dolg, H. Stoll, and H. Preuß, Theor. Chim. Acta 77, 123 (1990). 
   La (ecp-46-mwb):
     M. Dolg, H. Stoll, and H. Preuss, J. Chem. Phys. 90, 1730 (1989)., M. Dolg, H. Stoll, and H. Preuss, Theor. Chim. Acta 85, 441 (1993).
   Ce-Lu (SBKJC-ecp):
     T. R. Cundari and W. J. Stevens, J. Chem. Phys. 98, 5555 (1993).
   Tl-Rn (ecp-78-mwb):
     W. Küchle, M. Dolg, H. Stoll, and H. Preuss, Mol. Phys. 74, 1245 (1991).

ECP parameters for C  [vDZP-ECP], F  [vDZP-ECP], O  [vDZP-ECP] have been obtained from:
MM, AH, SG, J. Chem. Phys. 158, 014103 (2023), 10.1063/5.0133026

----- Orbital basis set information -----
Your calculation utilizes the basis: vDZP
   Marcel Mueller, Andreas Hansen, Stefan Grimme 
   J. Chem. Phys. 158, 014103 (2023). DOI: 10.1063/5.0133026

----- AuxJ basis set information -----
Your calculation utilizes the auxiliary basis: def2/J
   H-Rn: F. Weigend, Phys. Chem. Chem. Phys. 8, 1057 (2006).
   Fr-Lr: K. Eichkorn, F. Weigend, O. Treutler, R. Ahlrichs; Theor. Chem. Acc. 97, 119 (1997).

================================================================================
                                        WARNINGS
                       Please study these warnings very carefully!
================================================================================

WARNING: Frozen-Core approximation turned on, but there are no core electrons.
  ===> : Turning off frozen-core approximation


================================================================================
                                       INPUT FILE
================================================================================
NAME = conf_014.inp
|  1> ! wb97x-3c mbis hirshfeld chelpg resp
|  2> %pal nprocs 4 end
|  3> %maxcore 4000
|  4> %method
|  5> 	   MBIS_LARGEPRINT TRUE
|  6> 	end
|  7> #conf_014
|  8> * xyzfile 0 1 conf_014.xyz
|  9> 
| 10>                          ****END OF INPUT****
================================================================================

                       ****************************
                       * Single Point Calculation *
                       ****************************

---------------------------------
CARTESIAN COORDINATES (ANGSTROEM)
---------------------------------
  C     10.162925   -0.362323   -1.836902
  C      8.667207   -0.277348   -1.564914
  C      8.363997    0.655571   -0.383700
  C      6.889366    0.723409   -0.135803
  C      6.102808    1.665394   -0.787022
  C      4.738786    1.691236   -0.578991
  F      4.014144    2.611289   -1.242576
  C      4.081360    0.791735    0.261028
  C      2.626464    0.832792    0.473404
  C      1.984228    2.046426    0.703633
  C      0.619599    2.067825    0.912218
  F      0.027003    3.247606    1.114890
  C     -0.159426    0.910383    0.884663
  C     -1.628062    0.971732    1.145956
  O     -2.141006    1.671481    1.972074
  O     -2.266980    0.113537    0.331161
  C     -3.629412   -0.084294    0.360776
  C     -4.549953    0.883437    0.734782
  C     -5.895623    0.570564    0.674655
  F     -6.769701    1.518432    1.059271
  C     -6.367500   -0.672924    0.259451
  C     -7.802980   -0.990053    0.210994
  C     -8.252150   -2.231118    0.656310
  C     -9.597147   -2.540076    0.607137
  F    -10.012746   -3.737147    1.044654
  C    -10.526690   -1.632382    0.110699
  F    -11.827997   -1.940601    0.060577
  C    -10.066677   -0.396972   -0.332768
  F    -10.940948    0.490993   -0.823483
  C     -8.724663   -0.071960   -0.284831
  C     -5.411775   -1.621081   -0.107862
  C     -4.064131   -1.336768   -0.065591
  C      0.513688   -0.287132    0.644243
  F     -0.173011   -1.437944    0.626328
  C      1.878572   -0.341669    0.447460
  C      4.901435   -0.146387    0.888994
  F      4.346211   -1.035959    1.732962
  C      6.269091   -0.188473    0.709094
  H     10.565211    0.619504   -2.075863
  H     10.689623   -0.745445   -0.965852
  H     10.358311   -1.026183   -2.675208
  H      8.151644    0.092164   -2.453581
  H      8.275974   -1.272428   -1.343974
  H      8.749886    1.650868   -0.608972
  H      8.874094    0.280924    0.504980
  H      6.542066    2.387462   -1.457167
  H      2.531262    2.974837    0.732943
  H     -4.248597    1.859037    1.078792
  H     -7.567504   -2.956998    1.064470
  H     -8.416105    0.895908   -0.644790
  H     -5.740883   -2.589194   -0.451348
  H     -3.327905   -2.068960   -0.355235
  H      2.342692   -1.298444    0.270449
  H      6.841922   -0.934284    1.237344

----------------------------
CARTESIAN COORDINATES (A.U.)
----------------------------
  NO LB      ZA    FRAG     MASS         X           Y           Z
   0 C     4.0000*   0    12.011   19.205145   -0.684692   -3.471242
   1 C     4.0000*   0    12.011   16.378648   -0.524111   -2.957258
   2 C     4.0000*   0    12.011   15.805664    1.238849   -0.725087
   3 C     4.0000*   0    12.011   13.019016    1.367045   -0.256631
   4 C     4.0000*   0    12.011   11.532637    3.147139   -1.487257
   5 C     4.0000*   0    12.011    8.955007    3.195974   -1.094134
   6 F     7.0000*   0    18.998    7.585633    4.934620   -2.348129
   7 C     4.0000*   0    12.011    7.712654    1.496162    0.493271
   8 C     4.0000*   0    12.011    4.963298    1.573749    0.894603
   9 C     4.0000*   0    12.011    3.749647    3.867184    1.329673
  10 C     4.0000*   0    12.011    1.170873    3.907623    1.723842
  11 F     7.0000*   0    18.998    0.051029    6.137087    2.106837
  12 C     4.0000*   0    12.011   -0.301272    1.720375    1.671772
  13 C     4.0000*   0    12.011   -3.076592    1.836307    2.165544
  14 O     6.0000*   0    15.999   -4.045915    3.158641    3.726680
  15 O     6.0000*   0    15.999   -4.283971    0.214554    0.625803
  16 C     4.0000*   0    12.011   -6.858594   -0.159292    0.681768
  17 C     4.0000*   0    12.011   -8.598166    1.669454    1.388537
  18 C     4.0000*   0    12.011  -11.141114    1.078210    1.274914
  19 F     7.0000*   0    18.998  -12.792881    2.869421    2.001732
  20 C     4.0000*   0    12.011  -12.032830   -1.271643    0.490292
  21 C     4.0000*   0    12.011  -14.745496   -1.870929    0.398720
  22 C     4.0000*   0    12.011  -15.594304   -4.216201    1.240246
  23 C     4.0000*   0    12.011  -18.135980   -4.800047    1.147323
  24 F     7.0000*   0    18.998  -18.921347   -7.062184    1.974110
  25 C     4.0000*   0    12.011  -19.892562   -3.084755    0.209192
  26 F     7.0000*   0    18.998  -22.351675   -3.667205    0.114473
  27 C     4.0000*   0    12.011  -19.023262   -0.750168   -0.628840
  28 F     7.0000*   0    18.998  -20.675396    0.927842   -1.556158
  29 C     4.0000*   0    12.011  -16.487223   -0.135986   -0.538252
  30 C     4.0000*   0    12.011  -10.226773   -3.063398   -0.203829
  31 C     4.0000*   0    12.011   -7.680095   -2.526125   -0.123948
  32 C     4.0000*   0    12.011    0.970730   -0.542602    1.217444
  33 F     7.0000*   0    18.998   -0.326943   -2.717320    1.183589
  34 C     4.0000*   0    12.011    3.549987   -0.645661    0.845577
  35 C     4.0000*   0    12.011    9.262369   -0.276632    1.679956
  36 F     7.0000*   0    18.998    8.213148   -1.957679    3.274823
  37 C     4.0000*   0    12.011   11.846866   -0.356163    1.339994
  38 H     1.0000    0     1.008   19.965356    1.170694   -3.922812
  39 H     1.0000    0     1.008   20.200460   -1.408688   -1.825195
  40 H     1.0000    0     1.008   19.574372   -1.939204   -5.055411
  41 H     1.0000    0     1.008   15.404375    0.174165   -4.636597
  42 H     1.0000    0     1.008   15.639324   -2.404540   -2.539743
  43 H     1.0000    0     1.008   16.534888    3.119687   -1.150791
  44 H     1.0000    0     1.008   16.769607    0.530869    0.954273
  45 H     1.0000    0     1.008   12.362714    4.511650   -2.753647
  46 H     1.0000    0     1.008    4.783391    5.621627    1.385061
  47 H     1.0000    0     1.008   -8.028685    3.513070    2.038621
  48 H     1.0000    0     1.008  -14.300510   -5.587915    2.011558
  49 H     1.0000    0     1.008  -15.904134    1.693021   -1.218476
  50 H     1.0000    0     1.008  -10.848696   -4.892867   -0.852924
  51 H     1.0000    0     1.008   -6.288829   -3.909767   -0.671297
  52 H     1.0000    0     1.008    4.427046   -2.453703    0.511075
  53 H     1.0000    0     1.008   12.929360   -1.765541    2.338241
* core charge reduced due to ECP

--------------------------------
INTERNAL COORDINATES (ANGSTROEM)
--------------------------------
 C      0   0   0     0.000000000000     0.00000000     0.00000000
 C      1   0   0     1.522619549261     0.00000000     0.00000000
 C      2   1   0     1.535428394045   111.42721215     0.00000000
 C      3   2   1     1.496859978627   110.45584325   179.98312021
 C      4   3   2     1.389278655332   120.72076962   271.09331372
 C      5   4   3     1.380037499702   120.10785374   178.09223697
 F      6   5   4     1.346085570963   118.07141342   180.74266636
 C      6   5   4     1.395328770016   122.98182855   359.29666377
 C      8   6   5     1.470888225263   122.34173748   179.94921345
 C      9   8   6     1.392257057156   120.29715278   314.90143149
 C     10   9   8     1.380643427324   119.63249000   180.53256745
 F     11  10   9     1.335713021580   118.36733989   180.78305542
 C     11  10   9     1.395461471258   122.40781653   359.12572062
 C     13  11  10     1.492959956457   120.77196044   178.59700614
 O     14  13  11     1.198011001223   124.46309825   320.74787520
 O     14  13  11     1.344844036016   109.57784179   141.66942143
 C     16  14  13     1.377038292481   123.27749943   178.13603222
 C     17  16  14     1.387004074166   124.20904098    29.49470151
 C     18  17  16     1.382871165971   118.44113711   177.68862780
 F     19  18  17     1.345509186063   117.40882183   179.12676838
 C     19  18  17     1.393314233931   122.98623657     0.19237247
 C     21  19  18     1.470892206706   122.19173726   179.56971368
 C     22  21  19     1.392947260962   119.75280175   222.14937585
 C     23  22  21     1.380901740847   120.13457435   180.37735629
 F     24  23  22     1.340568014866   119.34856930   180.25694591
 C     24  23  22     1.390830128694   121.17496871     0.33133263
 F     26  24  23     1.338248963193   120.86028725   179.70788115
 C     26  24  23     1.390868391421   118.19307100   359.75617978
 F     28  26  24     1.339266278013   119.32984860   179.55883959
 C     28  26  24     1.381640808735   121.27414499     0.00000000
 C     21  19  18     1.395467212456   116.92868098   359.86185270
 C     31  21  19     1.377956496178   121.43598298   359.77643316
 C     13  11  10     1.394607049739   116.49840212     0.50747131
 F     33  13  11     1.340239762370   119.49302115   178.93446106
 C     33  13  11     1.380075005793   122.40200703     0.25712433
 C      8   6   5     1.395326707504   115.30549692     0.16316261
 F     36   8   6     1.346065446480   118.95172065   178.91937069
 C     36   8   6     1.380079669411   122.97516020     0.42777028
 H      1   2   3     1.087622172434   110.62244717   299.96053256
 H      1   2   3     1.087622381394   110.62845238    60.03314625
 H      1   2   3     1.087033460539   110.38999091   180.00151256
 H      2   1   3     1.091821517770   109.71581758   120.93816821
 H      2   1   3     1.091815728228   109.71158587   239.06149819
 H      3   2   1     1.090996633220   109.00200355    59.07141475
 H      3   2   1     1.091013255631   109.00564014   300.89453221
 H      5   4   3     1.078621404274   120.96873475   357.88387219
 H     10   9   8     1.077985392694   121.41008224   359.91349939
 H     18  17  16     1.077475416842   122.15491598   356.95175038
 H     23  22  21     1.078070923549   121.07443096     1.79101042
 H     30  28  26     1.077751608418   118.53856758   179.69199600
 H     31  21  19     1.078673912282   118.99092599   181.07482809
 H     32  31  21     1.077973944193   121.30277714   180.35666432
 H     35  33  13     1.078034279151   118.96465489   179.71240391
 H     38  36   8     1.078618057186   118.91708472   179.21942341

---------------------------
INTERNAL COORDINATES (A.U.)
---------------------------
 C      0   0   0     0.000000000000     0.00000000     0.00000000
 C      1   0   0     2.877333954257     0.00000000     0.00000000
 C      2   1   0     2.901539162991   111.42721215     0.00000000
 C      3   2   1     2.828655420432   110.45584325   179.98312021
 C      4   3   2     2.625356182280   120.72076962   271.09331372
 C      5   4   3     2.607892928977   120.10785374   178.09223697
 F      6   5   4     2.543733081943   118.07141342   180.74266636
 C      6   5   4     2.636789242111   122.98182855   359.29666377
 C      8   6   5     2.779575919357   122.34173748   179.94921345
 C      9   8   6     2.630984546044   120.29715278   314.90143149
 C     10   9   8     2.609037966240   119.63249000   180.53256745
 F     11  10   9     2.524131804299   118.36733989   180.78305542
 C     11  10   9     2.637040011117   122.40781653   359.12572062
 C     13  11  10     2.821285446614   120.77196044   178.59700614
 O     14  13  11     2.263912697736   124.46309825   320.74787520
 O     14  13  11     2.541386920908   109.57784179   141.66942143
 C     16  14  13     2.602225248711   123.27749943   178.13603222
 C     17  16  14     2.621057846807   124.20904098    29.49470151
 C     18  17  16     2.613247782181   118.44113711   177.68862780
 F     19  18  17     2.542643872334   117.40882183   179.12676838
 C     19  18  17     2.632982320625   122.98623657     0.19237247
 C     21  19  18     2.779583443194   122.19173726   179.56971368
 C     22  21  19     2.632288842214   119.75280175   222.14937585
 C     23  22  21     2.609526108055   120.13457435   180.37735629
 F     24  23  22     2.533306411992   119.34856930   180.25694591
 C     24  23  22     2.628288042038   121.17496871     0.33133263
 F     26  24  23     2.528924039438   120.86028725   179.70788115
 C     26  24  23     2.628360348113   118.19307100   359.75617978
 F     28  26  24     2.530846485841   119.32984860   179.55883959
 C     28  26  24     2.610922743958   121.27414499     0.00000000
 C     21  19  18     2.637050860409   116.92868098   359.86185270
 C     31  21  19     2.603960402234   121.43598298   359.77643316
 C     13  11  10     2.635425388443   116.49840212     0.50747131
 F     33  13  11     2.532686104671   119.49302115   178.93446106
 C     33  13  11     2.607963805218   122.40200703     0.25712433
 C      8   6   5     2.636785344528   115.30549692     0.16316261
 F     36   8   6     2.543695052182   118.95172065   178.91937069
 C     36   8   6     2.607972618179   122.97516020     0.42777028
 H      1   2   3     2.055308043080   110.62244717   299.96053256
 H      1   2   3     2.055308437958   110.62845238    60.03314625
 H      1   2   3     2.054195538828   110.38999091   180.00151256
 H      2   1   3     2.063243655707   109.71581758   120.93816821
 H      2   1   3     2.063232715058   109.71158587   239.06149819
 H      3   2   1     2.061684849817   109.00200355    59.07141475
 H      3   2   1     2.061716261620   109.00564014   300.89453221
 H      5   4   3     2.038299056264   120.96873475   357.88387219
 H     10   9   8     2.037097168560   121.41008224   359.91349939
 H     18  17  16     2.036133453864   122.15491598   356.95175038
 H     23  22  21     2.037258798451   121.07443096     1.79101042
 H     30  28  26     2.036655380303   118.53856758   179.69199600
 H     31  21  19     2.038398282019   118.99092599   181.07482809
 H     32  31  21     2.037075534028   121.30277714   180.35666432
 H     35  33  13     2.037189550574   118.96465489   179.71240391
 H     38  36   8     2.038292731184   118.91708472   179.21942341

---------------------
BASIS SET INFORMATION
---------------------
There are 4 groups of distinct atoms

 Group   1 Type C   : 6s6p2d contracted to 2s2p1d pattern {42/42/2}
 Group   2 Type F   : 6s6p2d contracted to 2s2p1d pattern {42/42/2}
 Group   3 Type O   : 6s6p2d contracted to 2s2p1d pattern {42/42/2}
 Group   4 Type H   : 8s2p contracted to 2s1p pattern {53/2}

Atom   0C    basis set group =>   1
Atom   1C    basis set group =>   1
Atom   2C    basis set group =>   1
Atom   3C    basis set group =>   1
Atom   4C    basis set group =>   1
Atom   5C    basis set group =>   1
Atom   6F    basis set group =>   2
Atom   7C    basis set group =>   1
Atom   8C    basis set group =>   1
Atom   9C    basis set group =>   1
Atom  10C    basis set group =>   1
Atom  11F    basis set group =>   2
Atom  12C    basis set group =>   1
Atom  13C    basis set group =>   1
Atom  14O    basis set group =>   3
Atom  15O    basis set group =>   3
Atom  16C    basis set group =>   1
Atom  17C    basis set group =>   1
Atom  18C    basis set group =>   1
Atom  19F    basis set group =>   2
Atom  20C    basis set group =>   1
Atom  21C    basis set group =>   1
Atom  22C    basis set group =>   1
Atom  23C    basis set group =>   1
Atom  24F    basis set group =>   2
Atom  25C    basis set group =>   1
Atom  26F    basis set group =>   2
Atom  27C    basis set group =>   1
Atom  28F    basis set group =>   2
Atom  29C    basis set group =>   1
Atom  30C    basis set group =>   1
Atom  31C    basis set group =>   1
Atom  32C    basis set group =>   1
Atom  33F    basis set group =>   2
Atom  34C    basis set group =>   1
Atom  35C    basis set group =>   1
Atom  36F    basis set group =>   2
Atom  37C    basis set group =>   1
Atom  38H    basis set group =>   4
Atom  39H    basis set group =>   4
Atom  40H    basis set group =>   4
Atom  41H    basis set group =>   4
Atom  42H    basis set group =>   4
Atom  43H    basis set group =>   4
Atom  44H    basis set group =>   4
Atom  45H    basis set group =>   4
Atom  46H    basis set group =>   4
Atom  47H    basis set group =>   4
Atom  48H    basis set group =>   4
Atom  49H    basis set group =>   4
Atom  50H    basis set group =>   4
Atom  51H    basis set group =>   4
Atom  52H    basis set group =>   4
Atom  53H    basis set group =>   4
---------------------------------
AUXILIARY/J BASIS SET INFORMATION
---------------------------------
There are 4 groups of distinct atoms

 Group   1 Type C   : 12s5p4d2f1g contracted to 6s4p3d1f1g pattern {711111/2111/211/2/1}
 Group   2 Type F   : 12s5p4d2f1g contracted to 6s4p3d1f1g pattern {711111/2111/211/2/1}
 Group   3 Type O   : 12s5p4d2f1g contracted to 6s4p3d1f1g pattern {711111/2111/211/2/1}
 Group   4 Type H   : 5s2p1d contracted to 3s1p1d pattern {311/2/1}

Atom   0C    basis set group =>   1
Atom   1C    basis set group =>   1
Atom   2C    basis set group =>   1
Atom   3C    basis set group =>   1
Atom   4C    basis set group =>   1
Atom   5C    basis set group =>   1
Atom   6F    basis set group =>   2
Atom   7C    basis set group =>   1
Atom   8C    basis set group =>   1
Atom   9C    basis set group =>   1
Atom  10C    basis set group =>   1
Atom  11F    basis set group =>   2
Atom  12C    basis set group =>   1
Atom  13C    basis set group =>   1
Atom  14O    basis set group =>   3
Atom  15O    basis set group =>   3
Atom  16C    basis set group =>   1
Atom  17C    basis set group =>   1
Atom  18C    basis set group =>   1
Atom  19F    basis set group =>   2
Atom  20C    basis set group =>   1
Atom  21C    basis set group =>   1
Atom  22C    basis set group =>   1
Atom  23C    basis set group =>   1
Atom  24F    basis set group =>   2
Atom  25C    basis set group =>   1
Atom  26F    basis set group =>   2
Atom  27C    basis set group =>   1
Atom  28F    basis set group =>   2
Atom  29C    basis set group =>   1
Atom  30C    basis set group =>   1
Atom  31C    basis set group =>   1
Atom  32C    basis set group =>   1
Atom  33F    basis set group =>   2
Atom  34C    basis set group =>   1
Atom  35C    basis set group =>   1
Atom  36F    basis set group =>   2
Atom  37C    basis set group =>   1
Atom  38H    basis set group =>   4
Atom  39H    basis set group =>   4
Atom  40H    basis set group =>   4
Atom  41H    basis set group =>   4
Atom  42H    basis set group =>   4
Atom  43H    basis set group =>   4
Atom  44H    basis set group =>   4
Atom  45H    basis set group =>   4
Atom  46H    basis set group =>   4
Atom  47H    basis set group =>   4
Atom  48H    basis set group =>   4
Atom  49H    basis set group =>   4
Atom  50H    basis set group =>   4
Atom  51H    basis set group =>   4
Atom  52H    basis set group =>   4
Atom  53H    basis set group =>   4
-------------------------
ECP PARAMETER INFORMATION
-------------------------

 Group 1, Type C  ECP vDZP-ECP (replacing 2 core electrons, lmax=3)
 Group 2, Type F  ECP vDZP-ECP (replacing 2 core electrons, lmax=3)
 Group 3, Type O  ECP vDZP-ECP (replacing 2 core electrons, lmax=3)

Atom   0C    ECP group =>   1
Atom   1C    ECP group =>   1
Atom   2C    ECP group =>   1
Atom   3C    ECP group =>   1
Atom   4C    ECP group =>   1
Atom   5C    ECP group =>   1
Atom   6F    ECP group =>   2
Atom   7C    ECP group =>   1
Atom   8C    ECP group =>   1
Atom   9C    ECP group =>   1
Atom  10C    ECP group =>   1
Atom  11F    ECP group =>   2
Atom  12C    ECP group =>   1
Atom  13C    ECP group =>   1
Atom  14O    ECP group =>   3
Atom  15O    ECP group =>   3
Atom  16C    ECP group =>   1
Atom  17C    ECP group =>   1
Atom  18C    ECP group =>   1
Atom  19F    ECP group =>   2
Atom  20C    ECP group =>   1
Atom  21C    ECP group =>   1
Atom  22C    ECP group =>   1
Atom  23C    ECP group =>   1
Atom  24F    ECP group =>   2
Atom  25C    ECP group =>   1
Atom  26F    ECP group =>   2
Atom  27C    ECP group =>   1
Atom  28F    ECP group =>   2
Atom  29C    ECP group =>   1
Atom  30C    ECP group =>   1
Atom  31C    ECP group =>   1
Atom  32C    ECP group =>   1
Atom  33F    ECP group =>   2
Atom  34C    ECP group =>   1
Atom  35C    ECP group =>   1
Atom  36F    ECP group =>   2
Atom  37C    ECP group =>   1



           ************************************************************
           *        Program running with 4 parallel MPI-processes     *
           *              working on a common directory               *
           ************************************************************
------------------------------------------------------------------------------
                             ORCA STARTUP CALCULATIONS
                           -- RI-GTO INTEGRALS CHOSEN --
------------------------------------------------------------------------------
------------------------------------------------------------------------------
                   ___                                                        
                  /   \      - P O W E R E D   B Y -                         
                 /     \                                                     
                 |  |  |   _    _      __       _____    __    __             
                 |  |  |  | |  | |    /  \     |  _  \  |  |  /  |          
                  \  \/   | |  | |   /    \    | | | |  |  | /  /          
                 / \  \   | |__| |  /  /\  \   | |_| |  |  |/  /          
                |  |  |   |  __  | /  /__\  \  |    /   |      \           
                |  |  |   | |  | | |   __   |  |    \   |  |\   \          
                \     /   | |  | | |  |  |  |  | |\  \  |  | \   \       
                 \___/    |_|  |_| |__|  |__|  |_| \__\ |__|  \__/        
                                                                              
                      - O R C A' S   B I G   F R I E N D -                    
                                      &                                       
                       - I N T E G R A L  F E E D E R -                       
                                                                              
 v1 FN, 2020, v2 2021, v3 2022-2024                                           
------------------------------------------------------------------------------


----------------------
SHARK INTEGRAL PACKAGE
----------------------

Number of atoms                             ...     54
Number of basis functions                   ...    574
Number of shells                            ...    238
Maximum angular momentum                    ...      2
Integral batch strategy                     ... SHARK/LIBINT Hybrid
RI-J (if used) integral strategy            ... SPLIT-RIJ (Revised 2003 algorithm where possible)
Printlevel                                  ...      1
Contraction scheme used                     ... SEGMENTED contraction
Prescreening option                         ... SCHWARTZ
   Thresh                                   ... 1.000e-10
   Tcut                                     ... 1.000e-11
   Tpresel                                  ... 1.000e-11 
Coulomb Range Separation                    ... NOT USED
Exchange Range Separation                   ... Long Range
   Mu parameter                             ... 3.000e-01
   Scaling (regular/separated)              ... 1.670e-01 8.330e-01
Robust (split-)RI terms used:
  metric    (central integrals)             ... YES
  density   (r.h.s.  integrals)             ... YES
  potential (l.h.s.  integrals)             ... YES
Multipole approximations                    ... NOT USED
Finite Nucleus Model                        ... NOT USED
CABS basis                                  ... NOT available
Auxiliary Coulomb fitting basis             ... AVAILABLE
   # of basis functions in Aux-J            ...   2038
   # of shells in Aux-J                     ...    650
   Maximum angular momentum in Aux-J        ...      4
Auxiliary J/K fitting basis                 ... NOT available
Auxiliary Correlation fitting basis         ... NOT available
Auxiliary 'external' fitting basis          ... NOT available

done (  0.0 sec) Dimension = 238
   => SHARK Basis and OBASIS are compatible. Storing Pre-screening
Shell pair information
Shell pair cut-off parameter TPreSel        ...   1.0e-11
Total number of shell pairs                 ...     28441
Shell pairs after pre-screening             ...     18307
Total number of primitive shell pairs       ...    240572
Primitive shell pairs kept                  ...    101258
          la=0 lb=0:   3870 shell pairs
          la=1 lb=0:   6528 shell pairs
          la=1 lb=1:   2841 shell pairs
          la=2 lb=0:   2525 shell pairs
          la=2 lb=1:   2126 shell pairs
          la=2 lb=2:    417 shell pairs

Checking whether 4 symmetric matrices of dimension 574 fit in memory
:Max Core in MB      =   4000.00
 MB in use           =     36.69
 MB left             =   3963.31
 MB needed           =      5.04
 Data fit in memory  = YES
done (  0.3 sec)
Calculating Nuclear repulsion               ... done (  0.0 sec) ENN=   1924.440807034084 Eh

Diagonalization of the overlap matrix:
Smallest eigenvalue                        ... 2.264e-04
Time for diagonalization                   ...    0.061 sec
Threshold for overlap eigenvalues          ... 1.000e-07
Number of eigenvalues below threshold      ... 0
Time for construction of square roots      ...    0.032 sec
Total time needed                          ...    0.104 sec

-------------------
DFT GRID GENERATION
-------------------

General Integration Accuracy     IntAcc      ... 4.388
Radial Grid Type                 RadialGrid  ... OptM3 with GC (2021)
Angular Grid (max. ang.)         AngularGrid ... 4 (Lebedev-302)
Angular grid pruning method      GridPruning ... 4 (adaptive)
Weight generation scheme         WeightScheme... mBecke (2022)
Basis function cutoff            BFCut       ... 1.0000e-10
Integration weight cutoff        WCut        ... 1.0000e-14
Partially contracted basis set               ... off
Rotationally invariant grid construction     ... off
Angular grids for H and He will be reduced by one unit

Total number of grid points                  ...   278826
Total number of batches                      ...     4385
Average number of points per batch           ...       63
Average number of grid points per atom       ...     5163

--------------------
COSX GRID GENERATION
--------------------

GRIDX 1
-------
General Integration Accuracy     IntAcc      ... 3.816
Radial Grid Type                 RadialGrid  ... OptM3 with GC (2021)
Angular Grid (max. ang.)         AngularGrid ... 1 (Lebedev-50)
Angular grid pruning method      GridPruning ... 4 (adaptive)
Weight generation scheme         WeightScheme... mBecke (2022)
Basis function cutoff            BFCut       ... 1.0000e-10
Integration weight cutoff        WCut        ... 1.0000e-14
Partially contracted basis set               ... on
Rotationally invariant grid construction     ... off
Angular grids for H and He will be reduced by one unit

Total number of grid points                  ...    35269
Total number of batches                      ...      305
Average number of points per batch           ...      115
Average number of grid points per atom       ...      653
UseSFitting                                  ... on

GRIDX 2
-------
General Integration Accuracy     IntAcc      ... 4.020
Radial Grid Type                 RadialGrid  ... OptM3 with GC (2021)
Angular Grid (max. ang.)         AngularGrid ... 2 (Lebedev-110)
Angular grid pruning method      GridPruning ... 4 (adaptive)
Weight generation scheme         WeightScheme... mBecke (2022)
Basis function cutoff            BFCut       ... 1.0000e-10
Integration weight cutoff        WCut        ... 1.0000e-14
Partially contracted basis set               ... on
Rotationally invariant grid construction     ... off
Angular grids for H and He will be reduced by one unit

Total number of grid points                  ...    79025
Total number of batches                      ...      638
Average number of points per batch           ...      123
Average number of grid points per atom       ...     1463
UseSFitting                                  ... on

GRIDX 3
-------
General Integration Accuracy     IntAcc      ... 4.338
Radial Grid Type                 RadialGrid  ... OptM3 with GC (2021)
Angular Grid (max. ang.)         AngularGrid ... 3 (Lebedev-194)
Angular grid pruning method      GridPruning ... 4 (adaptive)
Weight generation scheme         WeightScheme... mBecke (2022)
Basis function cutoff            BFCut       ... 1.0000e-10
Integration weight cutoff        WCut        ... 1.0000e-14
Partially contracted basis set               ... on
Rotationally invariant grid construction     ... off
Angular grids for H and He will be reduced by one unit

Total number of grid points                  ...   173770
Total number of batches                      ...     1379
Average number of points per batch           ...      126
Average number of grid points per atom       ...     3218
UseSFitting                                  ... on
Grids setup in   8.4 sec
Initializing property integral containers    ... done (  0.0 sec)

SHARK setup successfully completed in  11.2 seconds

Maximum memory used throughout the entire STARTUP-calculation: 100.9 MB


           ************************************************************
           *        Program running with 4 parallel MPI-processes     *
           *              working on a common directory               *
           ************************************************************
-------------------------------------------------------------------------------
                                 ORCA GUESS
                   Start orbitals & Density for SCF / CASSCF
-------------------------------------------------------------------------------

------------
SCF SETTINGS
------------
Hamiltonian:
 Density Functional     Method          .... DFT(GTOs)
 Exchange Functional    Exchange        .... WB97X-V
 Correlation Functional Correlation     .... WB97X-V
 Gradients option       PostSCFGGA      .... off
 Hybrid DFT is turned on
   Fraction HF Exchange ScalHFX         ....  0.167000
   Scaling of DF-GGA-X  ScalDFX         ....  0.000000
   Scaling of DF-GGA-C  ScalDFC         ....  1.000000
   Scaling of DF-LDA-C  ScalLDAC        ....  1.000000
   Perturbative correction              ....  0.000000
 Long-range corrected/Screened/Range-Separated Hybrid DFT is turned on
   Amount of maximum screened exact exchange              ....  0.833000
   Range separation parameter mu (erf(mu*r12)/r12)        ....  0.300000
   NL short-range parameter             ....  6.000000
   NL long-range parameter              ....  0.010000
 RI-approximation to the Coulomb term is turned on
   Number of AuxJ basis functions       .... 2038
   RIJ-COSX (HFX calculated with COS-X)).... on


General Settings:
 Integral files         IntName         .... conf_014
 Hartree-Fock type      HFTyp           .... RHF
 Total Charge           Charge          ....    0
 Multiplicity           Mult            ....    1
 Number of Electrons    NEL             ....  196
 Basis Dimension        Dim             ....  574
 Nuclear Repulsion      ENuc            ....   1924.4408070341 Eh

Convergence Acceleration:
 AO-DIIS                CNVDIIS         .... on
   Start iteration      DIISMaxIt       ....    12
   Startup error        DIISStart       ....  0.200000
   # of expansion vecs  DIISMaxEq       ....     5
   Bias factor          DIISBfac        ....   1.050
   Max. coefficient     DIISMaxC        ....  10.000
 MO-DIIS                CNVKDIIS        .... off
 Trust-Rad. Augm. Hess. CNVTRAH         .... auto
   Auto Start mean grad. ratio tolernc. ....  1.125000
   Auto Start start iteration           ....    50
   Auto Start num. interpolation iter.  ....    10
   Max. Number of Micro iterations      ....    24
   Max. Number of Macro iterations      .... Maxiter - #DIIS iter
   Number of Davidson start vectors     ....     2
   Converg. threshold    (grad. norm)   ....   5.000e-05
   Grad. Scal. Fac. for Micro threshold ....   0.100
   Minimum threshold for Micro iter.    ....   1.000e-02
   NR start threshold (gradient norm)   ....   1.000e-04
   Initial trust radius                 ....   0.400
   Minimum AH scaling param. (alpha)    ....   1.000
   Maximum AH scaling param. (alpha)    .... 1000.000
   Quad. conv. algorithm                .... NR
   White noise on init. David. guess    .... on
   Maximum white noise                  ....   0.010
   Pseudo random numbers                .... off
   Inactive MOs                         .... canonical
   Orbital update algorithm             .... Taylor
   Preconditioner                       .... Diag
   Full preconditioner red. dimension   ....   250
 SOSCF                 CNVSOSCF           .... on
   Start iteration     SOSCFMaxIt         ....   150
   Startup grad/error  SOSCFStart         ....  0.003300
   Hessian update      SOSCFHessUp        .... L-BFGS
   Autom. constraints  SOSCFAutoConstrain .... off
 Level Shifting         CNVShift        .... on
   Level shift para.    LevelShift      ....    0.2500
   Turn off err/grad.   ShiftErr        ....    0.0010
 Zerner damping         CNVZerner       .... off
 Static damping         CNVDamp         .... on
   Fraction old density DampFac         ....    0.7000
   Max. Damping (<1)    DampMax         ....    0.9800
   Min. Damping (>=0)   DampMin         ....    0.0000
   Turn off err/grad.   DampErr         ....    0.1000

SCF Procedure:
 Maximum # iterations   MaxIter         ....   125
 SCF integral mode      SCFMode         .... Direct
   Integral package                     .... SHARK and LIBINT hybrid scheme
 Reset frequency        DirectResetFreq ....    20
 Integral Threshold     Thresh          ....  1.000e-10 Eh
 Primitive CutOff       TCut            ....  1.000e-11 Eh

Convergence Tolerance:
 Convergence Check Mode ConvCheckMode   .... Total+1el-Energy
 Convergence forced     ConvForced      .... 0
 Energy Change          TolE            ....  1.000e-06 Eh
 1-El. energy change                    ....  1.000e-03 Eh
 Orbital Gradient       TolG            ....  5.000e-05
 Orbital Rotation angle TolX            ....  5.000e-05
 DIIS Error             TolErr          ....  1.000e-06

------------------------------
INITIAL GUESS: MODEL POTENTIAL
------------------------------
Loading Hartree-Fock densities                     ... done
Atomic calculation to generate a density for atom 0 (C  with ECP)
  Multiplicity assumed   :    1
  Atomic configuration   : 1s2 2s2 2p2 
  Number of open shells  : 1
  Command: /opt/apps/pkg/applications/orca/orca_6_1_0_linux_x86-64_shared_openmpi418/orca conf_014_atom6.inp "" > conf_014_atom6.out
Returned from the atomic calculation with res=0
Atomic calculation to generate a density for atom 6 (F  with ECP)
  Multiplicity assumed   :    2
  Atomic configuration   : 1s2 2s2 2p5 
  Number of open shells  : 1
  Command: /opt/apps/pkg/applications/orca/orca_6_1_0_linux_x86-64_shared_openmpi418/orca conf_014_atom9.inp "" > conf_014_atom9.out
Returned from the atomic calculation with res=0
Atomic calculation to generate a density for atom 14 (O  with ECP)
  Multiplicity assumed   :    3
  Atomic configuration   : 1s2 2s2 2p4 
  Number of open shells  : 1
  Command: /opt/apps/pkg/applications/orca/orca_6_1_0_linux_x86-64_shared_openmpi418/orca conf_014_atom8.inp "" > conf_014_atom8.out
Returned from the atomic calculation with res=0
Calculating cut-offs                               ... done
Initializing the effective Hamiltonian             ... done
Setting up the integral package (SHARK)            ... done
done (   1.9 sec)
done (   1.7 sec)
Mapping shells                                     ... done
Starting the XC term evaluation                    ... done (   0.5 sec)
  promolecular density results
     # of electrons  =    272.002778596
     EX              =   -168.151534704
     EC              =    -11.745041757
     EX+EC           =   -179.896576461
Transforming the Hamiltonian                       ... done (   0.1 sec)
done (   0.1 sec)
Back transforming the eigenvectors                 ... done (   0.3 sec)
done
                      ------------------
                      INITIAL GUESS DONE (   8.5 sec)
                      ------------------
             **** ENERGY FILE WAS UPDATED (conf_014.en.tmp) ****
Finished Guess after  10.6 sec
Maximum memory used throughout the entire GUESS-calculation: 55.3 MB


           ************************************************************
           *        Program running with 4 parallel MPI-processes     *
           *              working on a common directory               *
           ************************************************************

-------------------------------------------------------------------------------------------
                                      ORCA LEAN-SCF
                              memory conserving SCF solver
-------------------------------------------------------------------------------------------

----------------------------------------D-I-I-S--------------------------------------------
Iteration    Energy (Eh)           Delta-E    RMSDP     MaxDP     DIISErr   Damp  Time(sec)
-------------------------------------------------------------------------------------------
               ***  Starting incremental Fock matrix formation  ***
    1    -394.3781862641719727     0.00e+00  5.82e-03  9.41e-02  2.11e-01  0.700  75.0
    2    -394.9471261648484415    -5.69e-01  4.22e-03  6.68e-02  1.13e-01  0.700  31.0
                               ***Turning on AO-DIIS***
    3    -395.2113219761902201    -2.64e-01  2.44e-03  3.46e-02  5.92e-02  0.700  29.2
    4    -395.3681071018888815    -1.57e-01  5.36e-03  7.40e-02  3.42e-02  0.000  28.4
    5    -395.7095390678007334    -3.41e-01  4.49e-04  6.90e-03  7.25e-03  0.000  32.5
    6    -395.7113521437211148    -1.81e-03  2.33e-04  4.65e-03  3.42e-03  0.000  25.3
                              *** Initializing SOSCF ***
---------------------------------------S-O-S-C-F--------------------------------------
Iteration    Energy (Eh)           Delta-E    RMSDP     MaxDP     MaxGrad    Time(sec)
--------------------------------------------------------------------------------------
    7    -395.7118624377055767    -5.10e-04  1.22e-04  2.39e-03  1.96e-03    22.4
               *** Restarting incremental Fock matrix formation ***
    8    -395.7119817301938838    -1.19e-04  7.95e-05  1.63e-03  1.25e-03    70.4
    9    -395.7120339425234761    -5.22e-05  9.55e-05  1.89e-03  5.98e-04    43.2
   10    -395.7120475101271495    -1.36e-05  3.01e-05  1.19e-03  2.79e-04    41.0
   11    -395.7120535649294197    -6.05e-06  1.09e-05  2.91e-04  4.93e-05    35.4
   12    -395.7120537696243900    -2.05e-07  4.94e-06  9.90e-05  4.76e-05    28.1
                 **** Energy Check signals convergence ****

               *****************************************************
               *                     SUCCESS                       *
               *           SCF CONVERGED AFTER  12 CYCLES          *
               *****************************************************

 done (  132.154 sec)
Old exchange energy                            :    -40.322350852 Eh
New exchange energy                            :    -40.322351748 Eh
Exchange energy change after final integration :     -0.000000895 Eh
Total energy after final integration           :   -395.712054928 Eh
             **** ENERGY FILE WAS UPDATED (conf_014.en.tmp) ****

----------------
TOTAL SCF ENERGY
----------------

Total Energy       :       -395.71205492813249 Eh          -10767.87244 eV

Components:
Nuclear Repulsion  :       1924.44080703408395 Eh           52366.69663 eV
Electronic Energy  :      -2320.15286106682743 Eh          -63134.56905 eV
One Electron Energy:      -4464.94606034836761 Eh         -121497.35911 eV
Two Electron Energy:       2144.79319928154018 Eh           58362.79006 eV

Virial components:
Potential Energy   :       -709.37608032499998 Eh          -19303.10450 eV
Kinetic Energy     :        313.66402539686749 Eh            8535.23205 eV
Virial Ratio       :          2.26157934250653

DFT components:
N(Alpha)           :       97.999863769195 electrons
N(Beta)            :       97.999863769195 electrons
N(Total)           :      195.999727538391 electrons
E(X)               :      -51.261275840884 Eh       
E(C)               :       -7.927604336115 Eh       
E(XC)              :      -59.188880176999 Eh       

---------------
SCF CONVERGENCE
---------------

  Last Energy change         ...    2.0469e-07  Tolerance :   1.0000e-06
  Last MAX-Density change    ...    9.8963e-05  Tolerance :   1.0000e-05
  Last RMS-Density change    ...    4.9434e-06  Tolerance :   1.0000e-06
  Last DIIS Error            ...    1.9555e-03  Tolerance :   1.0000e-06
  Last Orbital Gradient      ...    4.7578e-05  Tolerance :   5.0000e-05
  Last Orbital Rotation      ...    1.7394e-04  Tolerance :   5.0000e-05


----------------
ORBITAL ENERGIES
----------------

  NO   OCC          E(Eh)            E(eV) 
   0   2.0000      -1.387381       -37.7525 
   1   2.0000      -1.382492       -37.6195 
   2   2.0000      -1.380409       -37.5628 
   3   2.0000      -1.379998       -37.5517 
   4   2.0000      -1.379639       -37.5419 
   5   2.0000      -1.376322       -37.4516 
   6   2.0000      -1.370910       -37.3044 
   7   2.0000      -1.367019       -37.1985 
   8   2.0000      -1.278614       -34.7928 
   9   2.0000      -1.184317       -32.2269 
  10   2.0000      -1.060321       -28.8528 
  11   2.0000      -1.052718       -28.6459 
  12   2.0000      -1.042047       -28.3555 
  13   2.0000      -1.030228       -28.0339 
  14   2.0000      -0.985618       -26.8200 
  15   2.0000      -0.962860       -26.2008 
  16   2.0000      -0.949458       -25.8361 
  17   2.0000      -0.922321       -25.0976 
  18   2.0000      -0.921267       -25.0690 
  19   2.0000      -0.918873       -25.0038 
  20   2.0000      -0.917473       -24.9657 
  21   2.0000      -0.915768       -24.9193 
  22   2.0000      -0.898960       -24.4619 
  23   2.0000      -0.857832       -23.3428 
  24   2.0000      -0.834224       -22.7004 
  25   2.0000      -0.801030       -21.7971 
  26   2.0000      -0.795633       -21.6503 
  27   2.0000      -0.793336       -21.5878 
  28   2.0000      -0.780945       -21.2506 
  29   2.0000      -0.777688       -21.1620 
  30   2.0000      -0.768294       -20.9063 
  31   2.0000      -0.759916       -20.6784 
  32   2.0000      -0.738496       -20.0955 
  33   2.0000      -0.737758       -20.0754 
  34   2.0000      -0.713825       -19.4242 
  35   2.0000      -0.709706       -19.3121 
  36   2.0000      -0.694188       -18.8898 
  37   2.0000      -0.690442       -18.7879 
  38   2.0000      -0.685233       -18.6461 
  39   2.0000      -0.684515       -18.6266 
  40   2.0000      -0.678482       -18.4624 
  41   2.0000      -0.671507       -18.2726 
  42   2.0000      -0.663272       -18.0486 
  43   2.0000      -0.644745       -17.5444 
  44   2.0000      -0.643595       -17.5131 
  45   2.0000      -0.640116       -17.4185 
  46   2.0000      -0.639482       -17.4012 
  47   2.0000      -0.638668       -17.3790 
  48   2.0000      -0.634135       -17.2557 
  49   2.0000      -0.631144       -17.1743 
  50   2.0000      -0.622651       -16.9432 
  51   2.0000      -0.618418       -16.8280 
  52   2.0000      -0.616086       -16.7646 
  53   2.0000      -0.615151       -16.7391 
  54   2.0000      -0.611405       -16.6372 
  55   2.0000      -0.608435       -16.5564 
  56   2.0000      -0.606015       -16.4905 
  57   2.0000      -0.603872       -16.4322 
  58   2.0000      -0.598852       -16.2956 
  59   2.0000      -0.595492       -16.2042 
  60   2.0000      -0.592196       -16.1145 
  61   2.0000      -0.588338       -16.0095 
  62   2.0000      -0.585525       -15.9329 
  63   2.0000      -0.579759       -15.7761 
  64   2.0000      -0.572186       -15.5700 
  65   2.0000      -0.567436       -15.4407 
  66   2.0000      -0.554696       -15.0941 
  67   2.0000      -0.553126       -15.0513 
  68   2.0000      -0.550794       -14.9879 
  69   2.0000      -0.541872       -14.7451 
  70   2.0000      -0.537106       -14.6154 
  71   2.0000      -0.535588       -14.5741 
  72   2.0000      -0.532952       -14.5024 
  73   2.0000      -0.525425       -14.2975 
  74   2.0000      -0.519385       -14.1332 
  75   2.0000      -0.517213       -14.0741 
  76   2.0000      -0.512453       -13.9446 
  77   2.0000      -0.504617       -13.7313 
  78   2.0000      -0.502700       -13.6792 
  79   2.0000      -0.501065       -13.6347 
  80   2.0000      -0.499703       -13.5976 
  81   2.0000      -0.493564       -13.4306 
  82   2.0000      -0.492213       -13.3938 
  83   2.0000      -0.487496       -13.2654 
  84   2.0000      -0.485547       -13.2124 
  85   2.0000      -0.468785       -12.7563 
  86   2.0000      -0.463490       -12.6122 
  87   2.0000      -0.461603       -12.5609 
  88   2.0000      -0.459340       -12.4993 
  89   2.0000      -0.422509       -11.4971 
  90   2.0000      -0.401382       -10.9222 
  91   2.0000      -0.388533       -10.5725 
  92   2.0000      -0.370928       -10.0935 
  93   2.0000      -0.369930       -10.0663 
  94   2.0000      -0.369485       -10.0542 
  95   2.0000      -0.368036       -10.0148 
  96   2.0000      -0.351913        -9.5760 
  97   2.0000      -0.335818        -9.1381 
  98   0.0000      -0.010743        -0.2923 
  99   0.0000       0.016943         0.4610 
 100   0.0000       0.046569         1.2672 
 101   0.0000       0.046827         1.2742 
 102   0.0000       0.048358         1.3159 
 103   0.0000       0.048934         1.3316 
 104   0.0000       0.049773         1.3544 
 105   0.0000       0.073033         1.9873 
 106   0.0000       0.077906         2.1199 
 107   0.0000       0.081369         2.2142 
 108   0.0000       0.085948         2.3388 
*Only the first 10 virtual orbitals were printed.

                    ********************************
                    * MULLIKEN POPULATION ANALYSIS *
                    ********************************

-----------------------
MULLIKEN ATOMIC CHARGES
-----------------------
   0 C :   -0.064932
   1 C :   -0.064415
   2 C :   -0.043586
   3 C :   -0.041983
   4 C :    0.036759
   5 C :    0.198814
   6 F :   -0.227351
   7 C :   -0.129345
   8 C :   -0.085677
   9 C :    0.065698
  10 C :    0.227090
  11 F :   -0.204605
  12 C :   -0.156840
  13 C :    0.285746
  14 O :   -0.278916
  15 O :   -0.222587
  16 C :    0.063939
  17 C :    0.049454
  18 C :    0.177335
  19 F :   -0.228406
  20 C :   -0.112345
  21 C :   -0.078725
  22 C :    0.026008
  23 C :    0.173658
  24 F :   -0.217356
  25 C :    0.193203
  26 F :   -0.209600
  27 C :    0.171615
  28 F :   -0.215052
  29 C :    0.061571
  30 C :    0.044897
  31 C :    0.045600
  32 C :    0.242119
  33 F :   -0.216259
  34 C :    0.069520
  35 C :    0.199548
  36 F :   -0.227342
  37 C :    0.036792
  38 H :    0.028744
  39 H :    0.028944
  40 H :    0.036472
  41 H :    0.042582
  42 H :    0.041967
  43 H :    0.044406
  44 H :    0.044343
  45 H :    0.032307
  46 H :    0.049583
  47 H :    0.063632
  48 H :    0.043698
  49 H :    0.047787
  50 H :    0.037338
  51 H :    0.032788
  52 H :    0.048861
  53 H :    0.032505
Sum of atomic charges:    0.0000000

--------------------------------
MULLIKEN REDUCED ORBITAL CHARGES
--------------------------------
  0 C s       :     0.937834  s :     0.937834
      pz      :     1.049357  p :     3.052823
      px      :     0.954787
      py      :     1.048680
      dz2     :     0.010646  d :     0.074275
      dxz     :     0.017832
      dyz     :     0.014158
      dx2y2   :     0.015253
      dxy     :     0.016386

  1 C s       :     1.007598  s :     1.007598
      pz      :     0.980562  p :     2.955062
      px      :     0.962669
      py      :     1.011831
      dz2     :     0.020171  d :     0.101754
      dxz     :     0.024113
      dyz     :     0.015972
      dx2y2   :     0.021396
      dxy     :     0.020102

  2 C s       :     0.968488  s :     0.968488
      pz      :     1.002141  p :     2.974680
      px      :     0.944385
      py      :     1.028154
      dz2     :     0.021316  d :     0.100418
      dxz     :     0.022893
      dyz     :     0.014526
      dx2y2   :     0.023636
      dxy     :     0.018047

  3 C s       :     1.043431  s :     1.043431
      pz      :     0.940226  p :     2.869577
      px      :     0.976345
      py      :     0.953006
      dz2     :     0.024332  d :     0.128976
      dxz     :     0.028344
      dyz     :     0.014299
      dx2y2   :     0.030808
      dxy     :     0.031193

  4 C s       :     0.960987  s :     0.960987
      pz      :     0.999855  p :     2.915246
      px      :     0.919052
      py      :     0.996339
      dz2     :     0.011229  d :     0.087009
      dxz     :     0.019914
      dyz     :     0.012059
      dx2y2   :     0.023030
      dxy     :     0.020777

  5 C s       :     1.059446  s :     1.059446
      pz      :     0.870187  p :     2.556447
      px      :     0.875967
      py      :     0.810293
      dz2     :     0.033938  d :     0.185293
      dxz     :     0.039169
      dyz     :     0.023207
      dx2y2   :     0.043378
      dxy     :     0.045602

  6 F s       :     1.886066  s :     1.886066
      pz      :     1.802996  p :     5.317663
      px      :     1.810072
      py      :     1.704595
      dz2     :     0.003886  d :     0.023622
      dxz     :     0.004252
      dyz     :     0.005112
      dx2y2   :     0.004684
      dxy     :     0.005689

  7 C s       :     0.989809  s :     0.989809
      pz      :     1.051439  p :     3.028494
      px      :     0.972600
      py      :     1.004455
      dz2     :     0.020080  d :     0.111042
      dxz     :     0.027722
      dyz     :     0.010509
      dx2y2   :     0.024258
      dxy     :     0.028472

  8 C s       :     1.015371  s :     1.015371
      pz      :     0.947493  p :     2.939696
      px      :     0.976333
      py      :     1.015870
      dz2     :     0.007723  d :     0.130610
      dxz     :     0.021254
      dyz     :     0.026777
      dx2y2   :     0.039322
      dxy     :     0.035534

  9 C s       :     0.970564  s :     0.970564
      pz      :     0.998323  p :     2.876919
      px      :     0.907583
      py      :     0.971013
      dz2     :     0.006667  d :     0.086819
      dxz     :     0.017109
      dyz     :     0.011170
      dx2y2   :     0.027652
      dxy     :     0.024220

 10 C s       :     1.064691  s :     1.064691
      pz      :     0.886325  p :     2.518687
      px      :     0.897033
      py      :     0.735329
      dz2     :     0.010558  d :     0.189532
      dxz     :     0.030515
      dyz     :     0.038045
      dx2y2   :     0.055238
      dxy     :     0.055176

 11 F s       :     1.884293  s :     1.884293
      pz      :     1.893779  p :     5.296013
      px      :     1.851901
      py      :     1.550333
      dz2     :     0.002918  d :     0.024299
      dxz     :     0.001711
      dyz     :     0.005915
      dx2y2   :     0.006486
      dxy     :     0.007269

 12 C s       :     1.011322  s :     1.011322
      pz      :     1.125459  p :     3.046615
      px      :     0.918736
      py      :     1.002420
      dz2     :     0.007562  d :     0.098904
      dxz     :     0.014690
      dyz     :     0.021867
      dx2y2   :     0.026383
      dxy     :     0.028402

 13 C s       :     1.078509  s :     1.078509
      pz      :     0.699470  p :     2.355903
      px      :     0.893953
      py      :     0.762480
      dz2     :     0.067055  d :     0.279842
      dxz     :     0.061513
      dyz     :     0.039276
      dx2y2   :     0.066112
      dxy     :     0.045886

 14 O s       :     1.762656  s :     1.762656
      pz      :     1.364449  p :     4.477419
      px      :     1.697165
      py      :     1.415805
      dz2     :     0.011794  d :     0.038841
      dxz     :     0.006729
      dyz     :     0.008476
      dx2y2   :     0.006019
      dxy     :     0.005824

 15 O s       :     1.652333  s :     1.652333
      pz      :     1.614470  p :     4.527365
      px      :     1.304386
      py      :     1.608508
      dz2     :     0.007594  d :     0.042890
      dxz     :     0.009295
      dyz     :     0.007053
      dx2y2   :     0.011758
      dxy     :     0.007190

 16 C s       :     1.040385  s :     1.040385
      pz      :     0.987762  p :     2.724514
      px      :     0.718220
      py      :     1.018532
      dz2     :     0.014450  d :     0.171162
      dxz     :     0.035921
      dyz     :     0.021286
      dx2y2   :     0.049817
      dxy     :     0.049687

 17 C s       :     0.968949  s :     0.968949
      pz      :     0.981605  p :     2.897444
      px      :     0.917647
      py      :     0.998192
      dz2     :     0.006954  d :     0.084154
      dxz     :     0.020852
      dyz     :     0.010024
      dx2y2   :     0.024039
      dxy     :     0.022285

 18 C s       :     1.060070  s :     1.060070
      pz      :     0.914186  p :     2.578542
      px      :     0.843320
      py      :     0.821037
      dz2     :     0.016414  d :     0.184053
      dxz     :     0.035023
      dyz     :     0.028663
      dx2y2   :     0.053772
      dxy     :     0.050181

 19 F s       :     1.885707  s :     1.885707
      pz      :     1.873699  p :     5.319076
      px      :     1.744713
      py      :     1.700665
      dz2     :     0.003155  d :     0.023623
      dxz     :     0.003805
      dyz     :     0.004087
      dx2y2   :     0.005004
      dxy     :     0.007572

 20 C s       :     0.993254  s :     0.993254
      pz      :     1.034248  p :     3.000869
      px      :     0.981261
      py      :     0.985361
      dz2     :     0.010960  d :     0.118221
      dxz     :     0.023267
      dyz     :     0.018383
      dx2y2   :     0.034968
      dxy     :     0.030644

 21 C s       :     0.999461  s :     0.999461
      pz      :     0.984974  p :     2.950915
      px      :     0.983012
      py      :     0.982929
      dz2     :     0.014432  d :     0.128349
      dxz     :     0.024714
      dyz     :     0.019825
      dx2y2   :     0.036202
      dxy     :     0.033177

 22 C s       :     0.968909  s :     0.968909
      pz      :     1.020917  p :     2.916162
      px      :     0.941868
      py      :     0.953377
      dz2     :     0.007612  d :     0.088920
      dxz     :     0.018899
      dyz     :     0.013209
      dx2y2   :     0.023036
      dxy     :     0.026164

 23 C s       :     1.058176  s :     1.058176
      pz      :     0.924718  p :     2.585280
      px      :     0.950756
      py      :     0.709806
      dz2     :     0.020209  d :     0.182886
      dxz     :     0.031424
      dyz     :     0.032551
      dx2y2   :     0.044326
      dxy     :     0.054376

 24 F s       :     1.888304  s :     1.888304
      pz      :     1.862540  p :     5.305198
      px      :     1.903990
      py      :     1.538668
      dz2     :     0.003269  d :     0.023854
      dxz     :     0.001498
      dyz     :     0.006719
      dx2y2   :     0.006710
      dxy     :     0.005658

 25 C s       :     1.045695  s :     1.045695
      pz      :     0.999765  p :     2.585949
      px      :     0.659786
      py      :     0.926397
      dz2     :     0.016263  d :     0.175153
      dxz     :     0.044659
      dyz     :     0.018086
      dx2y2   :     0.042747
      dxy     :     0.053398

 26 F s       :     1.889024  s :     1.889024
      pz      :     1.916374  p :     5.296153
      px      :     1.462987
      py      :     1.916792
      dz2     :     0.002785  d :     0.024422
      dxz     :     0.006785
      dyz     :     0.000466
      dx2y2   :     0.008049
      dxy     :     0.006338

 27 C s       :     1.058153  s :     1.058153
      pz      :     0.921680  p :     2.586825
      px      :     0.843926
      py      :     0.821219
      dz2     :     0.020658  d :     0.183406
      dxz     :     0.035528
      dyz     :     0.028886
      dx2y2   :     0.053031
      dxy     :     0.045302

 28 F s       :     1.888056  s :     1.888056
      pz      :     1.847422  p :     5.303078
      px      :     1.736545
      py      :     1.719112
      dz2     :     0.003456  d :     0.023917
      dxz     :     0.004316
      dyz     :     0.004156
      dx2y2   :     0.004726
      dxy     :     0.007264

 29 C s       :     0.973982  s :     0.973982
      pz      :     0.987754  p :     2.875727
      px      :     0.897355
      py      :     0.990618
      dz2     :     0.008188  d :     0.088720
      dxz     :     0.020880
      dyz     :     0.010763
      dx2y2   :     0.028013
      dxy     :     0.020877

 30 C s       :     0.982004  s :     0.982004
      pz      :     0.959966  p :     2.875047
      px      :     0.939144
      py      :     0.975937
      dz2     :     0.006795  d :     0.098052
      dxz     :     0.024915
      dyz     :     0.009469
      dx2y2   :     0.028388
      dxy     :     0.028486

 31 C s       :     0.976749  s :     0.976749
      pz      :     0.977942  p :     2.888083
      px      :     0.958608
      py      :     0.951534
      dz2     :     0.007302  d :     0.089567
      dxz     :     0.017608
      dyz     :     0.012376
      dx2y2   :     0.022344
      dxy     :     0.029938

 32 C s       :     1.058126  s :     1.058126
      pz      :     0.890784  p :     2.511597
      px      :     0.878607
      py      :     0.742206
      dz2     :     0.010165  d :     0.188158
      dxz     :     0.031177
      dyz     :     0.037239
      dx2y2   :     0.055469
      dxy     :     0.054107

 33 F s       :     1.884504  s :     1.884504
      pz      :     1.908835  p :     5.307797
      px      :     1.822678
      py      :     1.576284
      dz2     :     0.002746  d :     0.023959
      dxz     :     0.001979
      dyz     :     0.005230
      dx2y2   :     0.006283
      dxy     :     0.007720

 34 C s       :     0.969309  s :     0.969309
      pz      :     0.995386  p :     2.874209
      px      :     0.901759
      py      :     0.977064
      dz2     :     0.005485  d :     0.086962
      dxz     :     0.018306
      dyz     :     0.011215
      dx2y2   :     0.029172
      dxy     :     0.022784

 35 C s       :     1.059536  s :     1.059536
      pz      :     0.800459  p :     2.555620
      px      :     0.931114
      py      :     0.824047
      dz2     :     0.034767  d :     0.185296
      dxz     :     0.041192
      dyz     :     0.024178
      dx2y2   :     0.041189
      dxy     :     0.043969

 36 F s       :     1.885964  s :     1.885964
      pz      :     1.728327  p :     5.317755
      px      :     1.870079
      py      :     1.719349
      dz2     :     0.005148  d :     0.023623
      dxz     :     0.003936
      dyz     :     0.006354
      dx2y2   :     0.003867
      dxy     :     0.004318

 37 C s       :     0.960789  s :     0.960789
      pz      :     1.001549  p :     2.915405
      px      :     0.928801
      py      :     0.985056
      dz2     :     0.012970  d :     0.087014
      dxz     :     0.020254
      dyz     :     0.010609
      dx2y2   :     0.020954
      dxy     :     0.022227

 38 H s       :     0.926482  s :     0.926482
      pz      :     0.011312  p :     0.044775
      px      :     0.012808
      py      :     0.020655

 39 H s       :     0.926289  s :     0.926289
      pz      :     0.018383  p :     0.044767
      px      :     0.014140
      py      :     0.012244

 40 H s       :     0.918457  s :     0.918457
      pz      :     0.018127  p :     0.045071
      px      :     0.011649
      py      :     0.015295

 41 H s       :     0.914329  s :     0.914329
      pz      :     0.018677  p :     0.043089
      px      :     0.013150
      py      :     0.011262

 42 H s       :     0.914951  s :     0.914951
      pz      :     0.010329  p :     0.043082
      px      :     0.011896
      py      :     0.020858

 43 H s       :     0.911422  s :     0.911422
      pz      :     0.011002  p :     0.044172
      px      :     0.011457
      py      :     0.021714

 44 H s       :     0.911466  s :     0.911466
      pz      :     0.019570  p :     0.044191
      px      :     0.012874
      py      :     0.011748

 45 H s       :     0.916399  s :     0.916399
      pz      :     0.019438  p :     0.051294
      px      :     0.012312
      py      :     0.019543

 46 H s       :     0.898225  s :     0.898225
      pz      :     0.014468  p :     0.052192
      px      :     0.014585
      py      :     0.023139

 47 H s       :     0.881325  s :     0.881325
      pz      :     0.016360  p :     0.055043
      px      :     0.013160
      py      :     0.025523

 48 H s       :     0.903808  s :     0.903808
      pz      :     0.016926  p :     0.052495
      px      :     0.017282
      py      :     0.018286

 49 H s       :     0.899893  s :     0.899893
      pz      :     0.015499  p :     0.052320
      px      :     0.011511
      py      :     0.025311

 50 H s       :     0.911193  s :     0.911193
      pz      :     0.015795  p :     0.051469
      px      :     0.011881
      py      :     0.023793

 51 H s       :     0.916105  s :     0.916105
      pz      :     0.015384  p :     0.051106
      px      :     0.017960
      py      :     0.017763

 52 H s       :     0.898859  s :     0.898859
      pz      :     0.014950  p :     0.052280
      px      :     0.013418
      py      :     0.023912

 53 H s       :     0.916199  s :     0.916199
      pz      :     0.016999  p :     0.051296
      px      :     0.014271
      py      :     0.020025



                     *******************************
                     * LOEWDIN POPULATION ANALYSIS *
                     *******************************

----------------------
LOEWDIN ATOMIC CHARGES
----------------------
   0 C :   -0.110668
   1 C :   -0.079797
   2 C :   -0.071026
   3 C :   -0.017522
   4 C :   -0.031364
   5 C :    0.048125
   6 F :   -0.066404
   7 C :   -0.038135
   8 C :   -0.016907
   9 C :   -0.014917
  10 C :    0.056615
  11 F :   -0.049384
  12 C :   -0.030781
  13 C :   -0.026914
  14 O :   -0.095617
  15 O :    0.033941
  16 C :   -0.008959
  17 C :   -0.010106
  18 C :    0.045409
  19 F :   -0.066704
  20 C :   -0.039690
  21 C :   -0.031656
  22 C :   -0.021785
  23 C :    0.037269
  24 F :   -0.062641
  25 C :    0.038330
  26 F :   -0.056045
  27 C :    0.038678
  28 F :   -0.060394
  29 C :   -0.012852
  30 C :   -0.017481
  31 C :   -0.028923
  32 C :    0.052672
  33 F :   -0.059819
  34 C :   -0.016857
  35 C :    0.048162
  36 F :   -0.066385
  37 C :   -0.031406
  38 H :    0.043184
  39 H :    0.043169
  40 H :    0.046542
  41 H :    0.045821
  42 H :    0.045565
  43 H :    0.053466
  44 H :    0.053515
  45 H :    0.054192
  46 H :    0.059357
  47 H :    0.057997
  48 H :    0.056649
  49 H :    0.058992
  50 H :    0.054887
  51 H :    0.055789
  52 H :    0.058635
  53 H :    0.054182

-------------------------------
LOEWDIN REDUCED ORBITAL CHARGES
-------------------------------
  0 C s       :     0.766781  s :     0.766781
      pz      :     1.064536  p :     3.098558
      px      :     0.966883
      py      :     1.067139
      dz2     :     0.033892  d :     0.245329
      dxz     :     0.060065
      dyz     :     0.047069
      dx2y2   :     0.048180
      dxy     :     0.056123

[...]
  28 F       0.070648     -0.058969      0.102015      0.074517     -0.040814     -0.070843      0.081996      0.030838     -0.045702     -0.026123
  29 C       0.457492     -0.007941     -0.017374      0.370381     -0.157044     -0.154876      0.094266     -0.017445     -0.089170     -0.026430
  30 C      -0.381989     -0.053591      0.033080     -0.281592     -0.141124      0.254022      0.084942     -0.007573     -0.107858      0.033966
  31 C       0.503365     -0.497111     -0.010567      0.212278      0.032261     -0.193058     -0.066837     -0.056669     -0.208357     -0.028294
  32 C      -0.494311     -0.195662      0.044074     -0.052772      0.058441      0.241097      0.035509     -0.091861     -0.047988     -0.083573
  33 F      -0.019344     -0.050606      0.009819     -0.039744      0.007013     -0.150422     -0.007628      0.031393     -0.003233      0.094673
  34 C       0.577916     -0.163599     -0.071506     -0.180856     -0.165114     -0.292906      0.031396      0.046986     -0.002431      0.082498
  35 C      -0.480870     -0.170088      0.143384     -0.076889      0.150490      0.122115     -0.167535      0.029655      0.044350      0.012465
  36 F      -0.012981      0.090111     -0.067208      0.013893      0.008205     -0.069854      0.084178     -0.051097      0.078588     -0.051881
  37 C       0.577656      0.045912      0.032335     -0.092137     -0.009551     -0.143985      0.171239     -0.136791      0.150733     -0.080023
  38 H      -0.000353      0.048988     -0.007395      0.016965     -0.007603     -0.006089      0.002161     -0.010460     -0.000975      0.023434
  39 H       0.006676     -0.024457      0.049388     -0.008132      0.013747     -0.008790      0.000989     -0.003391      0.022156     -0.002410
  40 H      -0.009033     -0.042820     -0.045084     -0.013140     -0.018669     -0.012808      0.003081     -0.011764     -0.011291     -0.008012
  41 H      -0.018323      0.048338     -0.035947      0.017084     -0.009836      0.002416     -0.000635      0.001369     -0.015586      0.008694
  42 H      -0.009233     -0.040074      0.035998     -0.015302      0.016755      0.003781     -0.000524      0.004865      0.007935     -0.020380
  43 H       0.010905      0.036482     -0.034894      0.011113     -0.012458     -0.001033     -0.000573     -0.003899     -0.006602      0.018394
  44 H       0.017387     -0.045234      0.032480     -0.012660      0.007269     -0.000450     -0.001080      0.000841      0.012928     -0.006997
  45 H       0.027500      0.025875     -0.025380      0.008967     -0.012817      0.007036      0.000432      0.008109     -0.010568      0.010296
  46 H       0.040516      0.040465      0.001928      0.013916      0.000381      0.010296     -0.000152      0.008316      0.000662      0.010836
  47 H       0.017860      0.045942      0.021194      0.017040      0.004647      0.006226      0.000919      0.005049      0.009473      0.015006
  48 H       0.040333     -0.028046      0.022337     -0.008650      0.011502      0.011728     -0.000086      0.010255      0.009427     -0.008183
  49 H       0.027320      0.044264     -0.013939      0.016956     -0.007033      0.006591     -0.000795      0.005341     -0.007152      0.013107
  50 H      -0.023564     -0.048009     -0.019871     -0.020583     -0.011567     -0.004271      0.000566     -0.005296     -0.009713     -0.013220
  51 H       0.035646     -0.039228     -0.011592     -0.009979     -0.004478      0.008737     -0.000340      0.009465     -0.008243     -0.010626
  52 H       0.035185     -0.041649     -0.008431     -0.014560     -0.006558      0.009101      0.000917      0.008421     -0.003302     -0.011348
  53 H       0.033600     -0.027915      0.017669     -0.012530      0.005104      0.008891      0.000466      0.009188      0.008558     -0.010276

 MBIS THIRD RADIAL MOMENT (A.U.):
  ATOM      <r^3>
   0 C   44.305438
   1 C   40.832798
   2 C   41.875337
   3 C   33.498547
   4 C   41.041218
   5 C   29.788043
   6 F   18.091136
   7 C   38.844129
   8 C   32.190043
   9 C   40.437800
  10 C   28.768256
  11 F   18.087900
  12 C   41.927897
  13 C   22.269853
  14 O   25.730601
  15 O   23.930095
  16 C   29.525173
  17 C   41.265744
  18 C   29.756578
  19 F   18.096058
  20 C   37.137920
  21 C   33.504395
  22 C   39.952327
  23 C   31.654284
  24 F   18.109550
  25 C   33.828164
  26 F   17.902063
  27 C   31.609912
  28 F   18.089531
  29 C   39.660565
  30 C   36.593611
  31 C   39.772585
  32 C   28.920342
  33 F   18.104954
  34 C   40.517806
  35 C   29.778480
  36 F   18.090153
  37 C   41.057365
  38 H    2.378780
  39 H    2.379015
  40 H    2.353524
  41 H    2.286175
  42 H    2.288993
  43 H    2.211008
  44 H    2.211075
  45 H    2.016767
  46 H    1.906885
  47 H    1.793228
  48 H    1.972934
  49 H    1.923619
  50 H    2.133490
  51 H    2.044469
  52 H    1.914942
  53 H    2.016599

-------------------------
RESP CHARGES GENERATION
-------------------------
Number of atoms                    ...           54
Number of "pure atoms"             ...           54
Grid spacing                       ...     0.300000
Point Cut-Off                      ...     2.800000
Van-der-Waals Radii                ...        COSMO
Total charge                       ...            0
Penalty function                   ... hyperbolic
Penalty function wa                ... 0.000500
Penalty function wb                ... 0.100000
Dipole moment constraint           ...        FALSE
Equivalent atom charge constraint  ...        FALSE

Grid generated                     ...      0.0 sec
Grid points                        ...        28250
Potential calculated               ...     10.5 sec
RespFile stored                    ...           ok

Iter     dqmax
--------------

0     0.938947
1     0.038783
2     0.004839
3     0.000637
4     0.000084
5     0.000011
6     0.000001
7     0.000000

Charges calculated                 ...      1.6 sec

RESP Charges            
--------------------------------
  0   C   :      -0.448195
  1   C   :       0.254894
  2   C   :      -0.085041
  3   C   :       0.093227
  4   C   :      -0.396964
  5   C   :       0.338003
  6   F   :      -0.200161
  7   C   :      -0.240253
  8   C   :       0.423778
  9   C   :      -0.528092
 10   C   :       0.528139
 11   F   :      -0.212572
 12   C   :      -0.588454
 13   C   :       0.932312
 14   O   :      -0.533638
 15   O   :      -0.407492
 16   C   :       0.442018
 17   C   :      -0.528998
 18   C   :       0.379148
 19   F   :      -0.201073
 20   C   :      -0.009326
 21   C   :       0.146551
 22   C   :      -0.418130
 23   C   :       0.304197
 24   F   :      -0.184293
 25   C   :       0.093945
 26   F   :      -0.151062
 27   C   :       0.323647
 28   F   :      -0.185031
 29   C   :      -0.429768
 30   C   :      -0.198712
 31   C   :      -0.336578
 32   C   :       0.529936
 33   F   :      -0.217543
 34   C   :      -0.541131
 35   C   :       0.349127
 36   F   :      -0.197907
 37   C   :      -0.409249
 38   H   :       0.105236
 39   H   :       0.104095
 40   H   :       0.110402
 41   H   :      -0.017555
 42   H   :      -0.018147
 43   H   :       0.057492
 44   H   :       0.060862
 45   H   :       0.223778
 46   H   :       0.252722
 47   H   :       0.279691
 48   H   :       0.233540
 49   H   :       0.242728
 50   H   :       0.185836
 51   H   :       0.216411
 52   H   :       0.248935
 53   H   :       0.224714
--------------------------------
Total charge:    -0.000000
--------------------------------

RESP charges calculated...

Timings:
Grid generation                 ...        0.023 sec (=   0.000 min)
Potential calculation           ...       10.505 sec (=   0.175 min)
Fit to the potential            ...        1.624 sec (=   0.027 min)
------------------------------------------------------------------------------

-------
TIMINGS
-------

Total SCF time: 0 days 0 hours 12 min 20 sec 

Total time                  ....     740.740 sec
Sum of individual times     ....     717.987 sec  ( 96.9%)

SCF preparation             ....       3.523 sec  (  0.5%)
Fock matrix formation       ....     589.268 sec  ( 79.6%)
  Startup                   ....       0.104 sec  (  0.0% of F)
  Split-RI-J                ....      45.686 sec  (  7.8% of F)
  Chain of spheres X        ....     545.919 sec  ( 92.6% of F)
  XC integration            ....      19.022 sec  (  3.2% of F)
    XC Preparation          ....       0.000 sec  (  0.0% of XC)
    Basis function eval.    ....       4.857 sec  ( 25.5% of XC)
    Density eval.           ....       4.137 sec  ( 21.7% of XC)
    XC-Functional eval.     ....       1.168 sec  (  6.1% of XC)
    XC-Potential eval.      ....       5.077 sec  ( 26.7% of XC)
Diagonalization             ....       0.000 sec  (  0.0%)
Density matrix formation    ....       0.598 sec  (  0.1%)
Total Energy calculation    ....       0.330 sec  (  0.0%)
Population analysis         ....     120.255 sec  ( 16.2%)
Orbital Transformation      ....       0.411 sec  (  0.1%)
Orbital Orthonormalization  ....       0.000 sec  (  0.0%)
DIIS solution               ....       2.566 sec  (  0.3%)
SOSCF solution              ....       1.035 sec  (  0.1%)
Finished LeanSCF after 740.8 sec

Maximum memory used throughout the entire LEANSCF-calculation: 117.1 MB


-------------------------------------------------------------------------------
                          DFT DISPERSION CORRECTION                            
                                                                               
                                DFTD4 V3.4.0                                   
-------------------------------------------------------------------------------
The wB97X-3c composite method is recognized
Using three-body term ABC
Active option DFTDOPT                   ...         5   

-------------------------   ----------------
Dispersion correction           -0.087664797
-------------------------   ----------------


-------------------------   --------------------
FINAL SINGLE POINT ENERGY      -395.799719724976
-------------------------   --------------------



           ************************************************************
           *        Program running with 4 parallel MPI-processes     *
           *              working on a common directory               *
           ************************************************************

------------------------------------------------------------------------------
                              ORCA PROPERTY CALCULATIONS
------------------------------------------------------------------------------

GBWName                                 ... conf_014.gbw
Number of atoms                         ...     54
Number of basis functions               ...    574
Max core memory                         ...   4000 MB

Electric properties:
Dipole moment                           ... YES
Quadrupole moment                       ...  NO
Static polarizability (Dipole/Dipole)   ...  NO
Static polarizability (Dipole/Quad.)    ...  NO
Static polarizability (Quad./Quad.)     ...  NO
Static polarizability (Velocity)        ...  NO
Static hyperpolarizability              ...  NO

Atomic electric properties:
Dipole moment                           ...  NO
Quadrupole moment                       ...  NO
Static polarizability                   ...  NO

Choice of electric origin               ... Center of mass
Position of electric origin             ...    -2.950514     0.100715     0.534947

General magnetic properties:
Magnetizability                         ...  NO

EPR properties:
g-Tensor (aka g-matrix)                 ...  NO
Zero-Field splitting spin-orbit         ...  NO
Zero-field splitting spin-spin          ...  NO
Hyperfine couplings                     ...  NO (   0 nuclei)
Quadrupole couplings                    ...  NO (   0 nuclei)
Contact density                         ...  NO (   0 nuclei)

NMR properties:
Chemical shifts                         ...  NO (   0 nuclei)
Spin-rotation constants                 ...  NO (   0 nuclei)
Spin-spin couplings                     ...  NO (   0 nuclei,    0 pairs)

Choice of magnetic origin               ... GIAO
Position of magnetic origin             ...     0.000000     0.000000     0.000000

Properties with geometric perturbations:
SCF Hessian                             ...  NO
IR spectrum                             ...  NO
VCD spectrum                            ...  NO
X-ray spectroscopy properties:
SCF XES/XAS/RIXS spectra                ...  NO

SCF SOC stabilization energy            ...  NO
Diagonal Born-Oppenheimer correction    ...  NO

-------------
DIPOLE MOMENT
-------------

Method             : SCF
Type of density    : Electron Density
Multiplicity       :   1
Irrep              :   0
Energy             :  -395.7120549281324884 Eh
Basis              : AO
                                X                 Y                 Z
Electronic contribution:    -70.385232604       1.953497479      11.072380158
Nuclear contribution   :     74.325574388      -2.517656094     -12.039010745
                        -----------------------------------------
Total Dipole Moment    :      3.940341784      -0.564158615      -0.966630586
                        -----------------------------------------
Magnitude (a.u.)       :      4.096210811
Magnitude (Debye)      :     10.411740448



--------------------
Rotational spectrum 
--------------------
 
Rotational constants in cm-1:             0.011578             0.000758             0.000735 
Rotational constants in MHz :           347.099107            22.732678            22.036996 

Dipole components along the rotational axes: 
x,y,z [a.u.] :    -3.878664     1.056724     0.786282 
x,y,z [Debye]:    -9.858782     2.685979     1.998570 

 

Dipole moment calculation done in   0.0 sec 

Maximum memory used throughout the entire PROP-calculation: 57.6 MB

--------------------------------
SUGGESTED CITATIONS FOR THIS RUN
--------------------------------

Below you find a list of papers that are relevant to this ORCA run
We neither can nor want to force you to cite these papers, but we appreciate if you do
You receive ORCA, which is the product of decades of hard work by many enthusiastic individuals, for free
The only thing we kindly ask in return is that you cite our papers,
We deeply appreciate it, if you show your appreciation for ORCA by not just citing the generic ORCA reference.

Please note that relegating all ORCA citations to the supporting information does *not* help us.
SI sections are not indexed - citations you put there will not count into any citation statistics
But we need these citations in order to attract the funding resources that allow us to do what we are doing

Therefore, if you are a happy ORCA user, please consider citing a few of the papers listed below in the main body of your paper

In addition to the list printed below, the program has created the file conf_014.bibtex that contains the list in bibtex format
You can import this file easily into all common literature databanks and citation aid programs


List of essential papers. We consider these as the minimum necessary citations

  1. Mueller, M.; Hansen, A.; Grimme, S.
     wB97X-3c: A composite range-separated hybrid DFT method with a molecule-optimized polarized valence double-zeta basis set
     J. Chem. Phys. 2023 158 , 014103
     doi.org/10.1063/5.0133026
  2. Neese, F.
     Software update: the ORCA program system, version 6.0
     WIRES Comput. Molec. Sci. 2025 15(1), e70019
     doi.org/10.1002/wcms.7019

List of papers to cite with high priority. The work reported in these papers was absolutely
necessary for this run to complete.
Our perspective: the developers of density functionals and basis sets usually get cited in chemistry papers
Good! But without the algorithms to do something with them, the functionals or basis sets would not do anything.
Hence, in our opinion, the algorithm design and method developments papers are equally worthy of getting cited

  1. Neese, F.
     An improvement of the resolution of the identity approximation for the formation of the Coulomb matrix
     J. Comp. Chem. 2003 24(14), 1740-1747
     doi.org/10.1002/jcc.10318
  2. Neese, F.; Wennmohs, F.; Hansen, A.; Becker, U.
     Efficient, approximate and parallel Hartree-Fock and hybrid DFT calculations. A 'chain-of-spheres' algorithm for the Hartree-Fock exchange
     Chem. Phys. 2009 356(1-3), 98-109
     doi.org/10.1016/j.chemphys.2008.10.036
  3. Caldeweyher, E.; Bannwarth, C.; Grimme, S.
     Extension of the D3 dispersion coefficient model
     J. Chem. Phys. 2017 147 , 034112
     doi.org/10.1063/1.4993215
  4. Caldeweyher, E.; Ehlert, S.; Hansen, A.; Neugebauer, H.; Spicher, S.; Bannwarth, C.; Grimme, S.
     A generally applicable atomic-charge dependent London dispersion correction
     J. Chem. Phys. 2019 150 , 154122
     doi.org/10.1063/1.5090222
  5. Caldeweyher, E.; Mewes, J.; Ehlert, S.; Grimme, S.
     Extension and evaluation of the D4 London-dispersion model for periodic systems
     Phys. Chem. Chem. Phys. 2020 22(16), 8499-8512
     doi.org/10.1039/D0CP00502A
  6. Helmich-Paris, B.; de Souza, B.; Neese, F.; Izsák, R.
     An improved chain of spheres for exchange algorithm
     J. Chem. Phys. 2021 155(10), 104109
     doi.org/10.1063/5.0058766
  7. Neese, F.
     The SHARK Integral Generation and Digestion System
     J. Comp. Chem. 2022 44(3), 381
     doi.org/10.1002/jcc.26942
  8. Wittmann, L.; Gordiy, I.; Friede, M.; Helmich-Paris, B.; Grimme, S.; Hansen, A.; Bursch, M.
     Extension of the D3 and D4 London Dispersion Corrections to the full Actinides Series
     Phys. Chem. Chem. Phys. 2024 26(32), 21379-21394
     doi.org/10.1039/D4CP01514B

List of suggested additional citations. These are papers that are important in the 'surrounding' of 
of this run, or papers that preceded the highly important papers. If you like your results we are grateful for a citation.

  1. Izsak, R.; Neese, F.
     An overlap fitted chain of spheres exchange method
     J. Chem. Phys. 2011 135 , 144105
     doi.org/10.1063/1.3646921
  2. Izsak, R.; Hansen, A.; Neese, F.
     The resolution of identity and chain of spheres approximations for the LPNO-CCSD singles Fock term
     Molec. Phys. 2012 110 , 2413-2417
     doi.org/10.1080/00268976.2012.687466
  3. Neese, F.
     The ORCA program system
     WIRES Comput. Molec. Sci. 2012 2(1), 73-78
     doi.org/10.1002/wcms.81
  4. Izsak, R.; Neese, F.; Klopper, W.
     Robust fitting techniques in the chain of spheres approximation to the Fock exchange: The role of the complementary space
     J. Chem. Phys. 2013 139 , 
     doi.org/10.1063/1.4819264
  5. Neese, F.
     Software update: the ORCA program system, version 4.0
     WIRES Comput. Molec. Sci. 2018 8(1), 1-6
     doi.org/10.1002/wcms.1327
  6. Neese, F.; Wennmohs, F.; Becker, U.; Riplinger, C.
     The ORCA quantum chemistry program package
     J. Chem. Phys. 2020 152(22), 224108
     doi.org/10.1063/5.0004608
  7. Neese, F.
     Software update: The ORCA program system—Version 5.0
     WIRES Comput. Molec. Sci. 2022 12(1), e1606
     doi.org/10.1002/wcms.1606

List of optional additional citations

  1. Neese, F.
     Approximate second-order SCF convergence for spin unrestricted wavefunctions
     Chem. Phys. Lett. 2000 325(1-3), 93-98
     doi.org/10.1016/s0009-2614(00)00662-x

Timings for individual modules:

Sum of individual times          ...      767.690 sec (=  12.795 min)
Startup calculation              ...       13.356 sec (=   0.223 min)   1.7 %
SCF iterations                   ...      752.384 sec (=  12.540 min)  98.0 %
Property calculations            ...        1.950 sec (=   0.033 min)   0.3 %
                             ****ORCA TERMINATED NORMALLY****
TOTAL RUN TIME: 0 days 0 hours 12 minutes 49 seconds 626 msec
