Loading openmpi/5.0.6/gcc-14.2.0
  Loading requirement: gcc/14.2.0

                                 *****************
                                 * O   R   C   A *
                                 *****************

                                            #,                                       
                                            ###                                      
                                            ####                                     
                                            #####                                    
                                            ######                                   
                                           ########,                                 
                                     ,,################,,,,,                         
                               ,,#################################,,                 
                          ,,##########################################,,             
                       ,#########################################, ''#####,          
                    ,#############################################,,   '####,        
                  ,##################################################,,,,####,       
                ,###########''''           ''''###############################       
              ,#####''   ,,,,##########,,,,          '''####'''          '####       
            ,##' ,,,,###########################,,,                        '##       
           ' ,,###''''                  '''############,,,                           
         ,,##''                                '''############,,,,        ,,,,,,###''
      ,#''                                            '''#######################'''  
     '                                                          ''''####''''         
             ,#######,   #######,   ,#######,      ##                                
            ,#'     '#,  ##    ##  ,#'     '#,    #''#        ,####,    ,#,          
            ##       ##  ##   ,#'  ##            #'  '#       #'       ,# #          
            ##       ##  #######   ##           ,######,      #####,      #          
            '#,     ,#'  ##    ##  '#,     ,#' ,#      #,     #,   #      #          
             '#######'   ##     ##  '#######'  #'      '#     '####' #    #          



                #########################################################
                #                        -***-                          #
                #          Department of theory and spectroscopy        #
                #                                                       #
                #                      Frank Neese                      #
                #                                                       #
                #     Directorship, Architecture, Infrastructure        #
                #                    SHARK, DRIVERS                     #
                #        Core code/Algorithms in most modules           #
                #                                                       #
                #        Max Planck Institute fuer Kohlenforschung      #
                #                Kaiser Wilhelm Platz 1                 #
                #                 D-45470 Muelheim/Ruhr                 #
                #                      Germany                          #
                #                                                       #
                #                  All rights reserved                  #
                #                        -***-                          #
                #########################################################


                         Program Version 6.1.0  -  RELEASE   -
                                (GIT: $679e74b$)
                          ($2025-06-10 18:02:51 +0200$)


 With contributions from (in alphabetic order):
[Max-Planck-Institut fuer Kohlenforschung]                               
  Daniel Aravena         : Magnetic Suceptibility                        
  Michael Atanasov       : Ab Initio Ligand Field Theory (pilot matlab implementation)
  Alexander A. Auer      : GIAO ZORA, VPT2 properties, NMR spectrum      
  Ute Becker             : All parallelization in ORCA, NUMFREQ, NUMCALC 
  Giovanni Bistoni       : ED, misc. LED, open-shell LED, HFLD           
  Dmytro Bykov           : pre 5.0 version of the SCF Hessian            
  Marcos Casanova-Páez   : Triplet and SCS-CIS(D). UHF-(DLPNO)-IP/EA/STEOM-CCSD. UHF-CVS-IP/STEOM-CCSD   
  Vijay G. Chilkuri      : MRCI spin determinant printing, contributions to CSF-ICE 
  Pauline Colinet        : FMM embedding                                 
  Dipayan Datta          : RHF DLPNO-CCSD density                        
  Achintya Kumar Dutta   : EOM-CC, STEOM-CC                              
  Nicolas Foglia         : Exact transition moments, OPA infrastructure, MCD improvements    
  Dmitry Ganyushin       : Spin-Orbit,Spin-Spin,Magnetic field MRCI      
  Miquel Garcia-Rates    : C-PCM and meta-GGA Hessian, CCSD/C-PCM, Gaussian charge scheme 
  Tiago L. C. Gouveia    : GS-ROHF, GS-ROCIS                             
  Yang Guo               : DLPNO-NEVPT2, F12-NEVPT2, CIM, IAO-localization        
  Andreas Hansen         : Spin unrestricted coupled pair/coupled cluster methods 
  Ingolf Harden          : AUTO-CI MPn and infrastructure                
  Benjamin Helmich-Paris : MC-RPA, TRAH-(SCF,CASSCF), AVAS, COSX integrals, SCF dyn. polar., MC-PDFT, srDFT 
  Lee Huntington         : MR-EOM, pCC                                   
  Robert Izsak           : Overlap fitted RIJCOSX, COSX-SCS-MP3, EOM     
  Riya Kayal             : Wick's Theorem for AUTO-CI, AUTO-CI UHF-CCSDT 
  Emily Kempfer          : AUTO-CI RHF CISDT and CCSDT, approximate NEVPT4
  Christian Kollmar      : KDIIS, OOCD, Brueckner-CCSD(T), CCSD density, CASPT2, CASPT2-K, improved NEVPT2 
  Axel Koslowski         : Symmetry handling                             
  Simone Kossmann        : meta-GGA functionals, TD-DFT gradient, OOMP2, (MP2 Hessian; deprecated post 5.0) 
  Lucas Lang             : DCDCAS, Hyperfine gauge corrections, ICE-SOC+SSC
  Marvin Lechner         : AUTO-CI (C++ implementation), FIC-MRCC        
  Spencer Leger          : CASSCF response                               
  Dagmar Lenk            : GEPOL surface, SMD, ORCA-2-JSON               
  Dimitrios Liakos       : Extrapolation schemes; Compound Job, Property file
  Dimitrios Manganas     : Further ROCIS development; embedding schemes. LFT, Crystal Embedding 
  Dimitrios Pantazis     : SARC Basis sets                               
  Anastasios Papadopoulos: AUTO-CI, single reference methods and gradients 
  Taras Petrenko         : pre 6.0 DFT Hessian and TD-DFT gradient,  ECA, NRVS 
  Petra Pikulova         : Analytic Raman intensities                    
  Peter Pinski           : DLPNO-MP2, DLPNO-MP2 Gradient                 
  Shashank Vittal Rao    : ES-AILFT, MagRelax                            
  Christoph Reimann      : Effective Core Potentials                     
  Marius Retegan         : Local ZFS, SOC                                
  Christoph Riplinger    : Optimizer, TS searches, QM/MM, DLPNO-CCSD(T), (RO)-DLPNO pert. Triples 
  Michael Roemelt        : Original ROCIS implementation, recursive CI coupling coefficients
  Masaaki Saitow         : Open-shell DLPNO-CCSD energy and density      
  Barbara Sandhoefer     : DKH picture change effects                    
  Yorick L. A. Schmerwitz: GMF and freeze-and-release deltaSCF, NEB S-IDPP initial path                    
  Kantharuban Sivalingam : CASSCF convergence/infrastructure, NEVPT2, NEVPT3, NEVPT4(SD), FIC-MRCI and CEPA variants
  Bernardo de Souza      : ESD, SOC TD-DFT                               
  Georgi L. Stoychev     : AutoAux, RI-MP2 NMR, DLPNO-MP2 response, X2C  
  Van Anh Tran           : RI-MP2 g-tensors                              
  Willem Van den Heuvel  : Paramagnetic NMR                              
  Zikuan Wang            : NOTCH, Electric field optimization            
  Frank Wennmohs         : Technical directorship and infrastructure     
  Hang Xu                : AUTO-CI-Response properties                   
                                                                         
[FACCTs GmbH]                                                            
  Markus Bursch, Nicolas Foglia, Miquel Garcia-Rates, Ingolf Harden, Hagen Neugebauer, Anastasios Papadopoulos, 
  Christoph Riplinger, Bernardo de Souza, Georgi L. Stoychev                                                    
                                                                 
  APM, various basis sets, CI-OPT, improved COSX, DLPNO-Multilevel,           
  DOCKER, DRACO, updates on ESD, Fragmentator, GOAT, IRC, LR-CPCM, L-BFGS, MBIS, meta-GGA TD-DFT gradient, ML-optimized integration grids, 
  MM, NACMEs, nearIR, NEB, NEB-TS, NL-DFT gradient (VV10), 2- and 3-layer-ONIOM, interface openCOSMO-RS, QMMM,   
  Crystal-QMMM, RESP, rigid body optimization, SF, symmetry and pop. for TD-DFT, various functionals, SOLVATOR                                   
                                                                         
[Other institutions]                                                     
  V. Asgeirsson          : NEB                                           
  Christoph Bannwarth    : sTDA-DFT, sTD-DFT, PBEh-3c, B97-3c, D3        
  Giovanni Bistoni       : ETS/NOCV, ADLD/ADEX, COVALED                  
  Martin Brehm           : Molecular dynamics                            
  Ronald Cardenas        : ETS/NOCV                                      
  Martina Colucci        : COVALED                                       
  Sebastian Ehlert       : rSCAN, r2SCAN, r2SCAN-3c, D4, dhf basis sets  
  Marvin Friede          : D4 for Fr, Ra, Ac-Lr                          
  Lars Goerigk           : TD-DFT with DH, B97 family of functionals     
  Stefan Grimme          : VdW corrections, initial TS optimization, DFT functionals, gCP, sTDA/sTD-DF 
  Waldemar Hujo          : DFT-NL                                        
  H. Jonsson             : NEB                                           
  Holger Kruse           : gCP                                           
  Marcel Mueller         : wB97X-3c, vDZP basis set                      
  Hagen Neugebauer       : wr2SCAN, Native XTB                           
  Gianluca Regni         : ADLD/ADEX                                     
  Tobias Risthaus        : pre 6.0 range-separated hybrid DFT and stability analysis
  Lukas Wittmann         : regularized MP2, r2SCAN double-hybrids, wr2SCAN        
                                                                         
We gratefully acknowledge several colleagues who have allowed us to      
interface, adapt or use parts of their codes:                            
  Ed Valeev, F. Pavosevic, A. Kumar             : LibInt (2-el integral package), F12 methods 
  Garnet Chan, S. Sharma, J. Yang, R. Olivares  : DMRG                   
  Ulf Ekstrom                                   : XCFun DFT Library      
  Mihaly Kallay                                 : mrcc  (arbitrary order and MRCC methods)
  Frank Weinhold                                : gennbo (NPA and NBO analysis)           
  Simon Mueller                                 : openCOSMO-RS                            
  Christopher J. Cramer and Donald G. Truhlar   : smd solvation model                     
  S Lehtola, MJT Oliveira, MAL Marques          : LibXC Library                           
  Liviu Ungur et al                             : ANISO software                          


 Your calculation uses the libint2 library for the computation of 2-el integrals
 For citations please refer to: http://libint.valeyev.net

 Your ORCA version has been built with support for libXC version: 7.0.0
 For citations please refer to: https://libxc.gitlab.io

 This ORCA versions uses:
   CBLAS   interface :  Fast vector & matrix operations
   LAPACKE interface :  Fast linear algebra routines
   SCALAPACK package :  Parallel linear algebra routines
   Shared memory     :  Shared parallel matrices
   BLAS/LAPACK       :  OpenBLAS 0.3.29  USE64BITINT DYNAMIC_ARCH NO_AFFINITY Cooperlake SINGLE_THREADED
        Core in use  :  Cooperlake
   Copyright (c) 2011-2014, The OpenBLAS Project


  ***********************************
  * Starting time: Wed May 13 14:54:46 2026
  * Host name:     node045.aire.lee.alces.network
  * Process ID:    972983
  * Working dir.:  /tmp/job.4919716
  ***********************************

NOTE: MaxCore=4000 MB was set to SCF,MP2,MDCI,CIPSI,MRCI,RASCI and CIS
      => If you want to overwrite this, your respective input block should be placed after the MaxCore statement


***************************************
The coordinates will be read from file: conf_015.xyz
***************************************


Your calculation utilizes the atom-pairwise dispersion correction
based on EEQ partial charges (D4)


================================================================================

cite the ECPs for C  [vDZP-ECP], F  [vDZP-ECP], O  [vDZP-ECP] as follows:
   B-Ne (ecp-2-mwb), Al-Ar (ecp-10-mwb), Ga-Kr (ecp-28-mwb), Y-Cd (ecp-28-mwb), In-Xe (ecp-46-mwb):
     A. Bergner, M. Dolg, W. Küchle, H. Stoll, and H. Preuß, Mol. Phys. 80, 1431 (1993)., T. Leininger, A. Berning, A. Nicklass, H. Stoll, H.-J. Werner, and H.-J.Flad, Chem. Phys. 217, 19 (1997).
   Na-Mg, K-Ca, Rb-Sr, Cs-Ba (CRENBL):
     L. Fernandez Pacios and P. A. Christiansen, J. Chem. Phys. 82, 2664 (1985)., M. M. Hurley, L. F. Pacios, P. A. Christiansen, R. B. Ross, and W. C. Ermler, J. Chem. Phys. 84, 6840 (1986)., L. A. LaJohn, P. A. Christiansen, R. B. Ross, T. Atashroo, and W. C. Ermler, J. Chem. Phys. 87, 2812 (1987)., R. B. Ross, J. M. Powers, T. Atashroo, W. C. Ermler, L. A. LaJohn, and P. A. Christiansen, J. Chem. Phys. 93, 6654 (1990). 
   Sc-Zn (ecp-10-mdf):
     M. Dolg, U. Wedig, H. Stoll, and H. Preuss, J. Chem. Phys. 86, 866 (1986). 
   Y-Cd (ecp-28-mwb), Hf-Hg (ecp-60-mwb):
     D. Andrae, U. Häußermann, M. Dolg, H. Stoll, and H. Preuß, Theor. Chim. Acta 77, 123 (1990). 
   La (ecp-46-mwb):
     M. Dolg, H. Stoll, and H. Preuss, J. Chem. Phys. 90, 1730 (1989)., M. Dolg, H. Stoll, and H. Preuss, Theor. Chim. Acta 85, 441 (1993).
   Ce-Lu (SBKJC-ecp):
     T. R. Cundari and W. J. Stevens, J. Chem. Phys. 98, 5555 (1993).
   Tl-Rn (ecp-78-mwb):
     W. Küchle, M. Dolg, H. Stoll, and H. Preuss, Mol. Phys. 74, 1245 (1991).

ECP parameters for C  [vDZP-ECP], F  [vDZP-ECP], O  [vDZP-ECP] have been obtained from:
MM, AH, SG, J. Chem. Phys. 158, 014103 (2023), 10.1063/5.0133026

----- Orbital basis set information -----
Your calculation utilizes the basis: vDZP
   Marcel Mueller, Andreas Hansen, Stefan Grimme 
   J. Chem. Phys. 158, 014103 (2023). DOI: 10.1063/5.0133026

----- AuxJ basis set information -----
Your calculation utilizes the auxiliary basis: def2/J
   H-Rn: F. Weigend, Phys. Chem. Chem. Phys. 8, 1057 (2006).
   Fr-Lr: K. Eichkorn, F. Weigend, O. Treutler, R. Ahlrichs; Theor. Chem. Acc. 97, 119 (1997).

================================================================================
                                        WARNINGS
                       Please study these warnings very carefully!
================================================================================

WARNING: Frozen-Core approximation turned on, but there are no core electrons.
  ===> : Turning off frozen-core approximation


================================================================================
                                       INPUT FILE
================================================================================
NAME = conf_015.inp
|  1> ! wb97x-3c mbis hirshfeld chelpg resp
|  2> %pal nprocs 4 end
|  3> %maxcore 4000
|  4> %method
|  5> 	   MBIS_LARGEPRINT TRUE
|  6> 	end
|  7> #conf_015
|  8> * xyzfile 0 1 conf_015.xyz
|  9> 
| 10>                          ****END OF INPUT****
================================================================================

                       ****************************
                       * Single Point Calculation *
                       ****************************

---------------------------------
CARTESIAN COORDINATES (ANGSTROEM)
---------------------------------
  C     10.317426    0.645882   -1.725751
  C      8.856866    0.346141   -1.416934
  C      8.215819    1.471074   -0.591631
  C      6.782078    1.154248   -0.300851
  C      5.777987    1.537364   -1.181387
  C      4.464651    1.203122   -0.921191
  F      3.526552    1.582970   -1.809261
  C      4.075134    0.469428    0.199966
  C      2.671029    0.118186    0.461462
  C      1.668416    1.072827    0.309535
  C      0.354433    0.728610    0.552941
  F     -0.581116    1.679928    0.425868
  C     -0.020074   -0.552438    0.957605
  C     -1.434866   -0.920484    1.261704
  O     -1.772876   -1.613529    2.178592
  O     -2.252084   -0.341064    0.364764
  C     -3.623455   -0.457350    0.398300
  C     -4.304887   -1.536636    0.941231
  C     -5.685816   -1.548182    0.867605
  F     -6.326215   -2.596290    1.417087
  C     -6.422973   -0.523963    0.277106
  C     -7.892396   -0.549883    0.217239
  C     -8.577538   -1.718055   -0.105459
  C     -9.957762   -1.714993   -0.168083
  F    -10.603625   -2.842754   -0.491611
  C    -10.689701   -0.560780    0.089889
  F    -12.026463   -0.565130    0.026730
  C     -9.994555    0.599289    0.414593
  F    -10.674544    1.725679    0.671573
  C     -8.615098    0.612542    0.475874
  C     -5.703033    0.545569   -0.257051
  C     -4.326633    0.582238   -0.205778
  C      1.008534   -1.483542    1.106974
  F      0.707114   -2.736867    1.457213
  C      2.330911   -1.171110    0.862076
  C      5.110875    0.093771    1.056286
  F      4.815055   -0.595705    2.173225
  C      6.431305    0.423941    0.827658
  H     10.754088   -0.160100   -2.309989
  H     10.407315    1.569013   -2.293817
  H     10.889324    0.752202   -0.806756
  H      8.300812    0.224892   -2.348693
  H      8.782694   -0.591082   -0.861868
  H      8.284821    2.405492   -1.150568
  H      8.768621    1.585861    0.341927
  H      6.006679    2.099570   -2.073049
  H      1.896881    2.083591    0.012355
  H     -3.794248   -2.353058    1.424568
  H     -8.054421   -2.635924   -0.318562
  H     -8.116495    1.528791    0.748097
  H     -6.239213    1.348468   -0.738070
  H     -3.772440    1.406667   -0.624340
  H      3.078981   -1.938111    0.980983
  H      7.178123    0.109675    1.539635

----------------------------
CARTESIAN COORDINATES (A.U.)
----------------------------
  NO LB      ZA    FRAG     MASS         X           Y           Z
   0 C     4.0000*   0    12.011   19.497110    1.220539   -3.261197
   1 C     4.0000*   0    12.011   16.737052    0.654112   -2.677617
   2 C     4.0000*   0    12.011   15.525648    2.779928   -1.118021
   3 C     4.0000*   0    12.011   12.816269    2.181213   -0.568526
   4 C     4.0000*   0    12.011   10.918814    2.905197   -2.232498
   5 C     4.0000*   0    12.011    8.436968    2.273571   -1.740799
   6 F     7.0000*   0    18.998    6.664218    2.991380   -3.419007
   7 C     4.0000*   0    12.011    7.700887    0.887090    0.377880
   8 C     4.0000*   0    12.011    5.047514    0.223339    0.872037
   9 C     4.0000*   0    12.011    3.152849    2.027349    0.584937
  10 C     4.0000*   0    12.011    0.669781    1.376874    1.044906
  11 F     7.0000*   0    18.998   -1.098149    3.174604    0.804774
  12 C     4.0000*   0    12.011   -0.037934   -1.043956    1.809611
  13 C     4.0000*   0    12.011   -2.711503   -1.739463    2.384275
  14 O     6.0000*   0    15.999   -3.350249   -3.049129    4.116942
  15 O     6.0000*   0    15.999   -4.255822   -0.644518    0.689304
  16 C     4.0000*   0    12.011   -6.847337   -0.864267    0.752678
  17 C     4.0000*   0    12.011   -8.135058   -2.903822    1.778670
  18 C     4.0000*   0    12.011  -10.744634   -2.925639    1.639535
  19 F     7.0000*   0    18.998  -11.954814   -4.906277    2.677906
  20 C     4.0000*   0    12.011  -12.137660   -0.990146    0.523654
  21 C     4.0000*   0    12.011  -14.914467   -1.039128    0.410522
  22 C     4.0000*   0    12.011  -16.209197   -3.246653   -0.199288
  23 C     4.0000*   0    12.011  -18.817443   -3.240866   -0.317630
  24 F     7.0000*   0    18.998  -20.037946   -5.372027   -0.929009
  25 C     4.0000*   0    12.011  -20.200607   -1.059720    0.169865
  26 F     7.0000*   0    18.998  -22.726721   -1.067942    0.050512
  27 C     4.0000*   0    12.011  -18.886972    1.132492    0.783468
  28 F     7.0000*   0    18.998  -20.171965    3.261061    1.269089
  29 C     4.0000*   0    12.011  -16.280175    1.157536    0.899272
  30 C     4.0000*   0    12.011  -10.777171    1.030977   -0.485755
  31 C     4.0000*   0    12.011   -8.176151    1.100271   -0.388864
  32 C     4.0000*   0    12.011    1.905852   -2.803487    2.091877
  33 F     7.0000*   0    18.998    1.336252   -5.171929    2.753733
  34 C     4.0000*   0    12.011    4.404784   -2.213077    1.629087
  35 C     4.0000*   0    12.011    9.658155    0.177202    1.996091
  36 F     7.0000*   0    18.998    9.099135   -1.125719    4.106800
  37 C     4.0000*   0    12.011   12.153405    0.801132    1.564048
  38 H     1.0000    0     1.008   20.322282   -0.302546   -4.365247
  39 H     1.0000    0     1.008   19.666974    2.965004   -4.334686
  40 H     1.0000    0     1.008   20.577840    1.421457   -1.524547
  41 H     1.0000    0     1.008   15.686262    0.424984   -4.438386
  42 H     1.0000    0     1.008   16.596886   -1.116983   -1.628695
  43 H     1.0000    0     1.008   15.656042    4.545720   -2.174258
  44 H     1.0000    0     1.008   16.570293    2.996842    0.646148
  45 H     1.0000    0     1.008   11.350978    3.967612   -3.917495
  46 H     1.0000    0     1.008    3.584586    3.937417    0.023347
  47 H     1.0000    0     1.008   -7.170089   -4.446635    2.692044
  48 H     1.0000    0     1.008  -15.220650   -4.981175   -0.601995
  49 H     1.0000    0     1.008  -15.337953    2.888997    1.413699
  50 H     1.0000    0     1.008  -11.790403    2.548235   -1.394751
  51 H     1.0000    0     1.008   -7.128879    2.658215   -1.179832
  52 H     1.0000    0     1.008    5.818430   -3.662500    1.853790
  53 H     1.0000    0     1.008   13.564686    0.207256    2.909489
* core charge reduced due to ECP

--------------------------------
INTERNAL COORDINATES (ANGSTROEM)
--------------------------------
 C      0   0   0     0.000000000000     0.00000000     0.00000000
 C      1   0   0     1.522645115994     0.00000000     0.00000000
 C      2   1   0     1.535428772574   111.42415180     0.00000000
 C      3   2   1     1.496845497880   110.44115554   180.00118963
 C      4   3   2     1.389359288673   120.71370992   271.08639512
 C      5   4   3     1.379953685438   120.10070057   178.01923413
 F      6   5   4     1.346469899211   118.05925007   180.69174111
 C      6   5   4     1.395357585528   122.99294551   359.29293504
 C      8   6   5     1.470802773275   122.33820868   180.15812108
 C      9   8   6     1.392715071115   120.27590773   315.09345167
 C     10   9   8     1.379957284368   119.68688237   179.74087232
 F     11  10   9     1.340299990925   118.09095018   178.53839154
 C     11  10   9     1.394665586995   122.41094184     0.33399496
 C     13  11  10     1.493174588863   122.67886933   178.13522203
 O     14  13  11     1.198017307405   124.45711062   221.01088053
 O     14  13  11     1.344646825325   109.49897652    40.16096752
 C     16  14  13     1.376700661279   123.55635335   181.90518284
 C     17  16  14     1.387077193763   124.37656626   332.46998405
 C     18  17  16     1.382937892801   118.43850725   182.22084860
 F     19  18  17     1.345575397755   117.38712096   180.88517193
 C     19  18  17     1.393239013347   123.00791549   359.79504497
 C     21  19  18     1.470870099930   122.19968182   180.45339901
 C     22  21  19     1.392185177553   121.05568995   317.34276819
 C     23  22  21     1.381647639376   120.01809486   180.62056721
 F     24  23  22     1.339274248151   119.39542198   179.39510167
 C     24  23  22     1.390859674203   121.27456366   359.82090691
 F     26  24  23     1.338260217452   120.94459628   179.96816214
 C     26  24  23     1.390834749304   118.19319429     0.00000000
 F     28  26  24     1.340588909508   119.47522779   180.17396450
 C     28  26  24     1.380881213765   121.17508840     0.24156416
 C     21  19  18     1.395541225160   116.91539213     0.14688295
 C     31  21  19     1.377843633950   121.43281142     0.22482595
 C     13  11  10     1.395456791727   116.48763493     0.00000000
 F     33  13  11     1.335793790740   119.19498697   181.80700729
 C     33  13  11     1.380677929607   122.41255843   359.56660702
 C      8   6   5     1.395407886775   115.30459993     0.23009903
 F     36   8   6     1.345526175940   118.95855876   178.81467269
 C     36   8   6     1.380150620933   122.96132117     0.36175983
 H      1   2   3     1.087020908446   110.38781634   180.01267513
 H      1   2   3     1.087634847393   110.62723586   299.97451351
 H      1   2   3     1.087623033284   110.62534019    60.05252149
 H      2   1   3     1.091820238607   109.71263237   120.94610061
 H      2   1   3     1.091781495567   109.71046174   239.06607829
 H      3   2   1     1.091011815041   109.00902924    59.08787732
 H      3   2   1     1.091007379007   108.99429020   300.90405127
 H      5   4   3     1.078627012382   120.95840939   357.84629752
 H     10   9   8     1.078033921265   121.34475812   359.20987222
 H     18  17  16     1.077455883556   122.16437351     2.95524565
 H     23  22  21     1.077751552481   121.43802185     0.11942508
 H     30  28  26     1.078064348874   118.77581392   181.04981989
 H     31  21  19     1.078663013085   118.99372356   178.90813946
 H     32  31  21     1.077963540921   121.29715898   179.62844909
 H     35  33  13     1.077978481567   118.95213267   180.91203280
 H     38  36   8     1.078615060119   118.90629124   179.25391303

---------------------------
INTERNAL COORDINATES (A.U.)
---------------------------
 C      0   0   0     0.000000000000     0.00000000     0.00000000
 C      1   0   0     2.877382268382     0.00000000     0.00000000
 C      2   1   0     2.901539878308   111.42415180     0.00000000
 C      3   2   1     2.828628055785   110.44115554   180.00118963
 C      4   3   2     2.625508557213   120.71370992   271.08639512
 C      5   4   3     2.607734542974   120.10070057   178.01923413
 F      6   5   4     2.544459357076   118.05925007   180.69174111
 C      6   5   4     2.636843695538   122.99294551   359.29293504
 C      8   6   5     2.779414438502   122.33820868   180.15812108
 C      9   8   6     2.631850066991   120.27590773   315.09345167
 C     10   9   8     2.607741343966   119.68688237   179.74087232
 F     11  10   9     2.532799920145   118.09095018   178.53839154
 C     11  10   9     2.635536007825   122.41094184     0.33399496
 C     13  11  10     2.821691043081   122.67886933   178.13522203
 O     14  13  11     2.263924614692   124.45711062   221.01088053
 O     14  13  11     2.541014246711   109.49897652    40.16096752
 C     16  14  13     2.601587218205   123.55635335   181.90518284
 C     17  16  14     2.621196022820   124.37656626   332.46998405
 C     18  17  16     2.613373877615   118.43850725   182.22084860
 F     19  18  17     2.542768994299   117.38712096   180.88517193
 C     19  18  17     2.632840174320   123.00791549   359.79504497
 C     21  19  18     2.779541667441   122.19968182   180.45339901
 C     22  21  19     2.630848713280   121.05568995   317.34276819
 C     23  22  21     2.610935652000   120.01809486   180.62056721
 F     24  23  22     2.530861547219   119.39542198   179.39510167
 C     24  23  22     2.628343874959   121.27456366   359.82090691
 F     26  24  23     2.528945306906   120.94459628   179.96816214
 C     26  24  23     2.628296773725   118.19319429     0.00000000
 F     28  26  24     2.533345897142   119.47522779   180.17396450
 C     28  26  24     2.609487317493   121.17508840     0.24156416
 C     21  19  18     2.637190724149   116.91539213     0.14688295
 C     31  21  19     2.603747123532   121.43281142     0.22482595
 C     13  11  10     2.637031168084   116.48763493     0.00000000
 F     33  13  11     2.524284435891   119.19498697   181.80700729
 C     33  13  11     2.609103166107   122.41255843   359.56660702
 C      8   6   5     2.636938751118   115.30459993     0.23009903
 F     36   8   6     2.542675978549   118.95855876   178.81467269
 C     36   8   6     2.608106697124   122.96132117     0.36175983
 H      1   2   3     2.054171818809   110.38781634   180.01267513
 H      1   2   3     2.055331995282   110.62723586   299.97451351
 H      1   2   3     2.055309669851   110.62534019    60.05252149
 H      2   1   3     2.063241238440   109.71263237   120.94610061
 H      2   1   3     2.063168024704   109.71046174   239.06607829
 H      3   2   1     2.061713539299   109.00902924    59.08787732
 H      3   2   1     2.061705156411   108.99429020   300.90405127
 H      5   4   3     2.038309654052   120.95840939   357.84629752
 H     10   9   8     2.037188874268   121.34475812   359.20987222
 H     18  17  16     2.036096541304   122.16437351     2.95524565
 H     23  22  21     2.036655274598   121.43802185     0.11942508
 H     30  28  26     2.037246374117   118.77581392   181.04981989
 H     31  21  19     2.038377685521   118.99372356   178.90813946
 H     32  31  21     2.037055874693   121.29715898   179.62844909
 H     35  33  13     2.037084108422   118.95213267   180.91203280
 H     38  36   8     2.038287067547   118.90629124   179.25391303

---------------------
BASIS SET INFORMATION
---------------------
There are 4 groups of distinct atoms

 Group   1 Type C   : 6s6p2d contracted to 2s2p1d pattern {42/42/2}
 Group   2 Type F   : 6s6p2d contracted to 2s2p1d pattern {42/42/2}
 Group   3 Type O   : 6s6p2d contracted to 2s2p1d pattern {42/42/2}
 Group   4 Type H   : 8s2p contracted to 2s1p pattern {53/2}

Atom   0C    basis set group =>   1
Atom   1C    basis set group =>   1
Atom   2C    basis set group =>   1
Atom   3C    basis set group =>   1
Atom   4C    basis set group =>   1
Atom   5C    basis set group =>   1
Atom   6F    basis set group =>   2
Atom   7C    basis set group =>   1
Atom   8C    basis set group =>   1
Atom   9C    basis set group =>   1
Atom  10C    basis set group =>   1
Atom  11F    basis set group =>   2
Atom  12C    basis set group =>   1
Atom  13C    basis set group =>   1
Atom  14O    basis set group =>   3
Atom  15O    basis set group =>   3
Atom  16C    basis set group =>   1
Atom  17C    basis set group =>   1
Atom  18C    basis set group =>   1
Atom  19F    basis set group =>   2
Atom  20C    basis set group =>   1
Atom  21C    basis set group =>   1
Atom  22C    basis set group =>   1
Atom  23C    basis set group =>   1
Atom  24F    basis set group =>   2
Atom  25C    basis set group =>   1
Atom  26F    basis set group =>   2
Atom  27C    basis set group =>   1
Atom  28F    basis set group =>   2
Atom  29C    basis set group =>   1
Atom  30C    basis set group =>   1
Atom  31C    basis set group =>   1
Atom  32C    basis set group =>   1
Atom  33F    basis set group =>   2
Atom  34C    basis set group =>   1
Atom  35C    basis set group =>   1
Atom  36F    basis set group =>   2
Atom  37C    basis set group =>   1
Atom  38H    basis set group =>   4
Atom  39H    basis set group =>   4
Atom  40H    basis set group =>   4
Atom  41H    basis set group =>   4
Atom  42H    basis set group =>   4
Atom  43H    basis set group =>   4
Atom  44H    basis set group =>   4
Atom  45H    basis set group =>   4
Atom  46H    basis set group =>   4
Atom  47H    basis set group =>   4
Atom  48H    basis set group =>   4
Atom  49H    basis set group =>   4
Atom  50H    basis set group =>   4
Atom  51H    basis set group =>   4
Atom  52H    basis set group =>   4
Atom  53H    basis set group =>   4
---------------------------------
AUXILIARY/J BASIS SET INFORMATION
---------------------------------
There are 4 groups of distinct atoms

 Group   1 Type C   : 12s5p4d2f1g contracted to 6s4p3d1f1g pattern {711111/2111/211/2/1}
 Group   2 Type F   : 12s5p4d2f1g contracted to 6s4p3d1f1g pattern {711111/2111/211/2/1}
 Group   3 Type O   : 12s5p4d2f1g contracted to 6s4p3d1f1g pattern {711111/2111/211/2/1}
 Group   4 Type H   : 5s2p1d contracted to 3s1p1d pattern {311/2/1}

Atom   0C    basis set group =>   1
Atom   1C    basis set group =>   1
Atom   2C    basis set group =>   1
Atom   3C    basis set group =>   1
Atom   4C    basis set group =>   1
Atom   5C    basis set group =>   1
Atom   6F    basis set group =>   2
Atom   7C    basis set group =>   1
Atom   8C    basis set group =>   1
Atom   9C    basis set group =>   1
Atom  10C    basis set group =>   1
Atom  11F    basis set group =>   2
Atom  12C    basis set group =>   1
Atom  13C    basis set group =>   1
Atom  14O    basis set group =>   3
Atom  15O    basis set group =>   3
Atom  16C    basis set group =>   1
Atom  17C    basis set group =>   1
Atom  18C    basis set group =>   1
Atom  19F    basis set group =>   2
Atom  20C    basis set group =>   1
Atom  21C    basis set group =>   1
Atom  22C    basis set group =>   1
Atom  23C    basis set group =>   1
Atom  24F    basis set group =>   2
Atom  25C    basis set group =>   1
Atom  26F    basis set group =>   2
Atom  27C    basis set group =>   1
Atom  28F    basis set group =>   2
Atom  29C    basis set group =>   1
Atom  30C    basis set group =>   1
Atom  31C    basis set group =>   1
Atom  32C    basis set group =>   1
Atom  33F    basis set group =>   2
Atom  34C    basis set group =>   1
Atom  35C    basis set group =>   1
Atom  36F    basis set group =>   2
Atom  37C    basis set group =>   1
Atom  38H    basis set group =>   4
Atom  39H    basis set group =>   4
Atom  40H    basis set group =>   4
Atom  41H    basis set group =>   4
Atom  42H    basis set group =>   4
Atom  43H    basis set group =>   4
Atom  44H    basis set group =>   4
Atom  45H    basis set group =>   4
Atom  46H    basis set group =>   4
Atom  47H    basis set group =>   4
Atom  48H    basis set group =>   4
Atom  49H    basis set group =>   4
Atom  50H    basis set group =>   4
Atom  51H    basis set group =>   4
Atom  52H    basis set group =>   4
Atom  53H    basis set group =>   4
-------------------------
ECP PARAMETER INFORMATION
-------------------------

 Group 1, Type C  ECP vDZP-ECP (replacing 2 core electrons, lmax=3)
 Group 2, Type F  ECP vDZP-ECP (replacing 2 core electrons, lmax=3)
 Group 3, Type O  ECP vDZP-ECP (replacing 2 core electrons, lmax=3)

Atom   0C    ECP group =>   1
Atom   1C    ECP group =>   1
Atom   2C    ECP group =>   1
Atom   3C    ECP group =>   1
Atom   4C    ECP group =>   1
Atom   5C    ECP group =>   1
Atom   6F    ECP group =>   2
Atom   7C    ECP group =>   1
Atom   8C    ECP group =>   1
Atom   9C    ECP group =>   1
Atom  10C    ECP group =>   1
Atom  11F    ECP group =>   2
Atom  12C    ECP group =>   1
Atom  13C    ECP group =>   1
Atom  14O    ECP group =>   3
Atom  15O    ECP group =>   3
Atom  16C    ECP group =>   1
Atom  17C    ECP group =>   1
Atom  18C    ECP group =>   1
Atom  19F    ECP group =>   2
Atom  20C    ECP group =>   1
Atom  21C    ECP group =>   1
Atom  22C    ECP group =>   1
Atom  23C    ECP group =>   1
Atom  24F    ECP group =>   2
Atom  25C    ECP group =>   1
Atom  26F    ECP group =>   2
Atom  27C    ECP group =>   1
Atom  28F    ECP group =>   2
Atom  29C    ECP group =>   1
Atom  30C    ECP group =>   1
Atom  31C    ECP group =>   1
Atom  32C    ECP group =>   1
Atom  33F    ECP group =>   2
Atom  34C    ECP group =>   1
Atom  35C    ECP group =>   1
Atom  36F    ECP group =>   2
Atom  37C    ECP group =>   1



           ************************************************************
           *        Program running with 4 parallel MPI-processes     *
           *              working on a common directory               *
           ************************************************************
------------------------------------------------------------------------------
                             ORCA STARTUP CALCULATIONS
                           -- RI-GTO INTEGRALS CHOSEN --
------------------------------------------------------------------------------
------------------------------------------------------------------------------
                   ___                                                        
                  /   \      - P O W E R E D   B Y -                         
                 /     \                                                     
                 |  |  |   _    _      __       _____    __    __             
                 |  |  |  | |  | |    /  \     |  _  \  |  |  /  |          
                  \  \/   | |  | |   /    \    | | | |  |  | /  /          
                 / \  \   | |__| |  /  /\  \   | |_| |  |  |/  /          
                |  |  |   |  __  | /  /__\  \  |    /   |      \           
                |  |  |   | |  | | |   __   |  |    \   |  |\   \          
                \     /   | |  | | |  |  |  |  | |\  \  |  | \   \       
                 \___/    |_|  |_| |__|  |__|  |_| \__\ |__|  \__/        
                                                                              
                      - O R C A' S   B I G   F R I E N D -                    
                                      &                                       
                       - I N T E G R A L  F E E D E R -                       
                                                                              
 v1 FN, 2020, v2 2021, v3 2022-2024                                           
------------------------------------------------------------------------------


----------------------
SHARK INTEGRAL PACKAGE
----------------------

Number of atoms                             ...     54
Number of basis functions                   ...    574
Number of shells                            ...    238
Maximum angular momentum                    ...      2
Integral batch strategy                     ... SHARK/LIBINT Hybrid
RI-J (if used) integral strategy            ... SPLIT-RIJ (Revised 2003 algorithm where possible)
Printlevel                                  ...      1
Contraction scheme used                     ... SEGMENTED contraction
Prescreening option                         ... SCHWARTZ
   Thresh                                   ... 1.000e-10
   Tcut                                     ... 1.000e-11
   Tpresel                                  ... 1.000e-11 
Coulomb Range Separation                    ... NOT USED
Exchange Range Separation                   ... Long Range
   Mu parameter                             ... 3.000e-01
   Scaling (regular/separated)              ... 1.670e-01 8.330e-01
Robust (split-)RI terms used:
  metric    (central integrals)             ... YES
  density   (r.h.s.  integrals)             ... YES
  potential (l.h.s.  integrals)             ... YES
Multipole approximations                    ... NOT USED
Finite Nucleus Model                        ... NOT USED
CABS basis                                  ... NOT available
Auxiliary Coulomb fitting basis             ... AVAILABLE
   # of basis functions in Aux-J            ...   2038
   # of shells in Aux-J                     ...    650
   Maximum angular momentum in Aux-J        ...      4
Auxiliary J/K fitting basis                 ... NOT available
Auxiliary Correlation fitting basis         ... NOT available
Auxiliary 'external' fitting basis          ... NOT available

done (  0.0 sec) Dimension = 238
   => SHARK Basis and OBASIS are compatible. Storing Pre-screening
Shell pair information
Shell pair cut-off parameter TPreSel        ...   1.0e-11
Total number of shell pairs                 ...     28441
Shell pairs after pre-screening             ...     18302
Total number of primitive shell pairs       ...    240572
Primitive shell pairs kept                  ...    101266
          la=0 lb=0:   3869 shell pairs
          la=1 lb=0:   6521 shell pairs
          la=1 lb=1:   2842 shell pairs
          la=2 lb=0:   2525 shell pairs
          la=2 lb=1:   2128 shell pairs
          la=2 lb=2:    417 shell pairs

Checking whether 4 symmetric matrices of dimension 574 fit in memory
:Max Core in MB      =   4000.00
 MB in use           =     36.69
 MB left             =   3963.31
 MB needed           =      5.04
 Data fit in memory  = YES
done (  0.3 sec)
Calculating Nuclear repulsion               ... done (  0.0 sec) ENN=   1924.238569411194 Eh

Diagonalization of the overlap matrix:
Smallest eigenvalue                        ... 2.262e-04
Time for diagonalization                   ...    0.060 sec
Threshold for overlap eigenvalues          ... 1.000e-07
Number of eigenvalues below threshold      ... 0
Time for construction of square roots      ...    0.033 sec
Total time needed                          ...    0.101 sec

-------------------
DFT GRID GENERATION
-------------------

General Integration Accuracy     IntAcc      ... 4.388
Radial Grid Type                 RadialGrid  ... OptM3 with GC (2021)
Angular Grid (max. ang.)         AngularGrid ... 4 (Lebedev-302)
Angular grid pruning method      GridPruning ... 4 (adaptive)
Weight generation scheme         WeightScheme... mBecke (2022)
Basis function cutoff            BFCut       ... 1.0000e-10
Integration weight cutoff        WCut        ... 1.0000e-14
Partially contracted basis set               ... off
Rotationally invariant grid construction     ... off
Angular grids for H and He will be reduced by one unit

Total number of grid points                  ...   278818
Total number of batches                      ...     4383
Average number of points per batch           ...       63
Average number of grid points per atom       ...     5163

--------------------
COSX GRID GENERATION
--------------------

GRIDX 1
-------
General Integration Accuracy     IntAcc      ... 3.816
Radial Grid Type                 RadialGrid  ... OptM3 with GC (2021)
Angular Grid (max. ang.)         AngularGrid ... 1 (Lebedev-50)
Angular grid pruning method      GridPruning ... 4 (adaptive)
Weight generation scheme         WeightScheme... mBecke (2022)
Basis function cutoff            BFCut       ... 1.0000e-10
Integration weight cutoff        WCut        ... 1.0000e-14
Partially contracted basis set               ... on
Rotationally invariant grid construction     ... off
Angular grids for H and He will be reduced by one unit

Total number of grid points                  ...    35303
Total number of batches                      ...      305
Average number of points per batch           ...      115
Average number of grid points per atom       ...      654
UseSFitting                                  ... on

GRIDX 2
-------
General Integration Accuracy     IntAcc      ... 4.020
Radial Grid Type                 RadialGrid  ... OptM3 with GC (2021)
Angular Grid (max. ang.)         AngularGrid ... 2 (Lebedev-110)
Angular grid pruning method      GridPruning ... 4 (adaptive)
Weight generation scheme         WeightScheme... mBecke (2022)
Basis function cutoff            BFCut       ... 1.0000e-10
Integration weight cutoff        WCut        ... 1.0000e-14
Partially contracted basis set               ... on
Rotationally invariant grid construction     ... off
Angular grids for H and He will be reduced by one unit

Total number of grid points                  ...    79060
Total number of batches                      ...      640
Average number of points per batch           ...      123
Average number of grid points per atom       ...     1464
UseSFitting                                  ... on

GRIDX 3
-------
General Integration Accuracy     IntAcc      ... 4.338
Radial Grid Type                 RadialGrid  ... OptM3 with GC (2021)
Angular Grid (max. ang.)         AngularGrid ... 3 (Lebedev-194)
Angular grid pruning method      GridPruning ... 4 (adaptive)
Weight generation scheme         WeightScheme... mBecke (2022)
Basis function cutoff            BFCut       ... 1.0000e-10
Integration weight cutoff        WCut        ... 1.0000e-14
Partially contracted basis set               ... on
Rotationally invariant grid construction     ... off
Angular grids for H and He will be reduced by one unit

Total number of grid points                  ...   173675
Total number of batches                      ...     1383
Average number of points per batch           ...      125
Average number of grid points per atom       ...     3216
UseSFitting                                  ... on
Grids setup in   8.8 sec
Initializing property integral containers    ... done (  0.0 sec)

SHARK setup successfully completed in  11.5 seconds

Maximum memory used throughout the entire STARTUP-calculation: 100.9 MB


           ************************************************************
           *        Program running with 4 parallel MPI-processes     *
           *              working on a common directory               *
           ************************************************************
-------------------------------------------------------------------------------
                                 ORCA GUESS
                   Start orbitals & Density for SCF / CASSCF
-------------------------------------------------------------------------------

------------
SCF SETTINGS
------------
Hamiltonian:
 Density Functional     Method          .... DFT(GTOs)
 Exchange Functional    Exchange        .... WB97X-V
 Correlation Functional Correlation     .... WB97X-V
 Gradients option       PostSCFGGA      .... off
 Hybrid DFT is turned on
   Fraction HF Exchange ScalHFX         ....  0.167000
   Scaling of DF-GGA-X  ScalDFX         ....  0.000000
   Scaling of DF-GGA-C  ScalDFC         ....  1.000000
   Scaling of DF-LDA-C  ScalLDAC        ....  1.000000
   Perturbative correction              ....  0.000000
 Long-range corrected/Screened/Range-Separated Hybrid DFT is turned on
   Amount of maximum screened exact exchange              ....  0.833000
   Range separation parameter mu (erf(mu*r12)/r12)        ....  0.300000
   NL short-range parameter             ....  6.000000
   NL long-range parameter              ....  0.010000
 RI-approximation to the Coulomb term is turned on
   Number of AuxJ basis functions       .... 2038
   RIJ-COSX (HFX calculated with COS-X)).... on


General Settings:
 Integral files         IntName         .... conf_015
 Hartree-Fock type      HFTyp           .... RHF
 Total Charge           Charge          ....    0
 Multiplicity           Mult            ....    1
 Number of Electrons    NEL             ....  196
 Basis Dimension        Dim             ....  574
 Nuclear Repulsion      ENuc            ....   1924.2385694112 Eh

Convergence Acceleration:
 AO-DIIS                CNVDIIS         .... on
   Start iteration      DIISMaxIt       ....    12
   Startup error        DIISStart       ....  0.200000
   # of expansion vecs  DIISMaxEq       ....     5
   Bias factor          DIISBfac        ....   1.050
   Max. coefficient     DIISMaxC        ....  10.000
 MO-DIIS                CNVKDIIS        .... off
 Trust-Rad. Augm. Hess. CNVTRAH         .... auto
   Auto Start mean grad. ratio tolernc. ....  1.125000
   Auto Start start iteration           ....    50
   Auto Start num. interpolation iter.  ....    10
   Max. Number of Micro iterations      ....    24
   Max. Number of Macro iterations      .... Maxiter - #DIIS iter
   Number of Davidson start vectors     ....     2
   Converg. threshold    (grad. norm)   ....   5.000e-05
   Grad. Scal. Fac. for Micro threshold ....   0.100
   Minimum threshold for Micro iter.    ....   1.000e-02
   NR start threshold (gradient norm)   ....   1.000e-04
   Initial trust radius                 ....   0.400
   Minimum AH scaling param. (alpha)    ....   1.000
   Maximum AH scaling param. (alpha)    .... 1000.000
   Quad. conv. algorithm                .... NR
   White noise on init. David. guess    .... on
   Maximum white noise                  ....   0.010
   Pseudo random numbers                .... off
   Inactive MOs                         .... canonical
   Orbital update algorithm             .... Taylor
   Preconditioner                       .... Diag
   Full preconditioner red. dimension   ....   250
 SOSCF                 CNVSOSCF           .... on
   Start iteration     SOSCFMaxIt         ....   150
   Startup grad/error  SOSCFStart         ....  0.003300
   Hessian update      SOSCFHessUp        .... L-BFGS
   Autom. constraints  SOSCFAutoConstrain .... off
 Level Shifting         CNVShift        .... on
   Level shift para.    LevelShift      ....    0.2500
   Turn off err/grad.   ShiftErr        ....    0.0010
 Zerner damping         CNVZerner       .... off
 Static damping         CNVDamp         .... on
   Fraction old density DampFac         ....    0.7000
   Max. Damping (<1)    DampMax         ....    0.9800
   Min. Damping (>=0)   DampMin         ....    0.0000
   Turn off err/grad.   DampErr         ....    0.1000

SCF Procedure:
 Maximum # iterations   MaxIter         ....   125
 SCF integral mode      SCFMode         .... Direct
   Integral package                     .... SHARK and LIBINT hybrid scheme
 Reset frequency        DirectResetFreq ....    20
 Integral Threshold     Thresh          ....  1.000e-10 Eh
 Primitive CutOff       TCut            ....  1.000e-11 Eh

Convergence Tolerance:
 Convergence Check Mode ConvCheckMode   .... Total+1el-Energy
 Convergence forced     ConvForced      .... 0
 Energy Change          TolE            ....  1.000e-06 Eh
 1-El. energy change                    ....  1.000e-03 Eh
 Orbital Gradient       TolG            ....  5.000e-05
 Orbital Rotation angle TolX            ....  5.000e-05
 DIIS Error             TolErr          ....  1.000e-06

------------------------------
INITIAL GUESS: MODEL POTENTIAL
------------------------------
Loading Hartree-Fock densities                     ... done
Atomic calculation to generate a density for atom 0 (C  with ECP)
  Multiplicity assumed   :    1
  Atomic configuration   : 1s2 2s2 2p2 
  Number of open shells  : 1
  Command: /opt/apps/pkg/applications/orca/orca_6_1_0_linux_x86-64_shared_openmpi418/orca conf_015_atom6.inp "" > conf_015_atom6.out
Returned from the atomic calculation with res=0
Atomic calculation to generate a density for atom 6 (F  with ECP)
  Multiplicity assumed   :    2
  Atomic configuration   : 1s2 2s2 2p5 
  Number of open shells  : 1
  Command: /opt/apps/pkg/applications/orca/orca_6_1_0_linux_x86-64_shared_openmpi418/orca conf_015_atom9.inp "" > conf_015_atom9.out
Returned from the atomic calculation with res=0
Atomic calculation to generate a density for atom 14 (O  with ECP)
  Multiplicity assumed   :    3
  Atomic configuration   : 1s2 2s2 2p4 
  Number of open shells  : 1
  Command: /opt/apps/pkg/applications/orca/orca_6_1_0_linux_x86-64_shared_openmpi418/orca conf_015_atom8.inp "" > conf_015_atom8.out
Returned from the atomic calculation with res=0
Calculating cut-offs                               ... done
Initializing the effective Hamiltonian             ... done
Setting up the integral package (SHARK)            ... done
done (   1.8 sec)
done (   1.7 sec)
Mapping shells                                     ... done
Starting the XC term evaluation                    ... done (   0.5 sec)
  promolecular density results
     # of electrons  =    271.989675724
     EX              =   -168.150382126
     EC              =    -11.744471160
     EX+EC           =   -179.894853286
Transforming the Hamiltonian                       ... done (   0.1 sec)
done (   0.1 sec)
Back transforming the eigenvectors                 ... done (   0.3 sec)
done
                      ------------------
                      INITIAL GUESS DONE (   8.3 sec)
                      ------------------
             **** ENERGY FILE WAS UPDATED (conf_015.en.tmp) ****
Finished Guess after  10.5 sec
Maximum memory used throughout the entire GUESS-calculation: 55.3 MB


           ************************************************************
           *        Program running with 4 parallel MPI-processes     *
           *              working on a common directory               *
           ************************************************************

-------------------------------------------------------------------------------------------
                                      ORCA LEAN-SCF
                              memory conserving SCF solver
-------------------------------------------------------------------------------------------

----------------------------------------D-I-I-S--------------------------------------------
Iteration    Energy (Eh)           Delta-E    RMSDP     MaxDP     DIISErr   Damp  Time(sec)
-------------------------------------------------------------------------------------------
               ***  Starting incremental Fock matrix formation  ***
    1    -394.3781389500377372     0.00e+00  5.83e-03  9.43e-02  2.26e-01  0.700  75.4
    2    -394.9470420047960033    -5.69e-01  4.22e-03  6.69e-02  1.12e-01  0.700  31.2
                               ***Turning on AO-DIIS***
    3    -395.2112553736774316    -2.64e-01  2.44e-03  3.46e-02  5.83e-02  0.700  29.5
    4    -395.3680582994252291    -1.57e-01  5.36e-03  7.26e-02  3.36e-02  0.000  28.8
    5    -395.7095316123923112    -3.41e-01  4.48e-04  6.89e-03  7.27e-03  0.000  32.4
    6    -395.7113449434391441    -1.81e-03  2.33e-04  4.86e-03  3.54e-03  0.000  25.2
                              *** Initializing SOSCF ***
---------------------------------------S-O-S-C-F--------------------------------------
Iteration    Energy (Eh)           Delta-E    RMSDP     MaxDP     MaxGrad    Time(sec)
--------------------------------------------------------------------------------------
    7    -395.7118574529426951    -5.13e-04  1.22e-04  2.79e-03  1.97e-03    22.6
               *** Restarting incremental Fock matrix formation ***
    8    -395.7119366122833526    -7.92e-05  7.99e-05  1.79e-03  1.27e-03    70.7
    9    -395.7119893143108129    -5.27e-05  9.58e-05  2.30e-03  6.03e-04    43.1
   10    -395.7120030502860573    -1.37e-05  3.00e-05  1.28e-03  3.26e-04    40.8
   11    -395.7120091332581069    -6.08e-06  1.09e-05  2.97e-04  5.43e-05    35.3
   12    -395.7120092892764660    -1.56e-07  4.95e-06  9.41e-05  4.80e-05    27.9
                 **** Energy Check signals convergence ****

               *****************************************************
               *                     SUCCESS                       *
               *           SCF CONVERGED AFTER  12 CYCLES          *
               *****************************************************

 done (  130.865 sec)
Old exchange energy                            :    -40.322276381 Eh
New exchange energy                            :    -40.322283785 Eh
Exchange energy change after final integration :     -0.000007404 Eh
Total energy after final integration           :   -395.712016962 Eh
             **** ENERGY FILE WAS UPDATED (conf_015.en.tmp) ****

----------------
TOTAL SCF ENERGY
----------------

Total Energy       :       -395.71201696195686 Eh          -10767.87141 eV

Components:
Nuclear Repulsion  :       1924.23856941119402 Eh           52361.19347 eV
Electronic Energy  :      -2319.95057896881099 Eh          -63129.06467 eV
One Electron Energy:      -4464.54616316298689 Eh         -121486.47735 eV
Two Electron Energy:       2144.59558419417590 Eh           58357.41268 eV

Virial components:
Potential Energy   :       -709.37688158401068 Eh          -19303.12630 eV
Kinetic Energy     :        313.66486462205381 Eh            8535.25489 eV
Virial Ratio       :          2.26157584605074

DFT components:
N(Alpha)           :       98.000023387067 electrons
N(Beta)            :       98.000023387067 electrons
N(Total)           :      196.000046774133 electrons
E(X)               :      -51.261275801388 Eh       
E(C)               :       -7.927636558238 Eh       
E(XC)              :      -59.188912359626 Eh       

---------------
SCF CONVERGENCE
---------------

  Last Energy change         ...    1.5602e-07  Tolerance :   1.0000e-06
  Last MAX-Density change    ...    9.4085e-05  Tolerance :   1.0000e-05
  Last RMS-Density change    ...    4.9510e-06  Tolerance :   1.0000e-06
  Last DIIS Error            ...    1.9659e-03  Tolerance :   1.0000e-06
  Last Orbital Gradient      ...    4.7965e-05  Tolerance :   5.0000e-05
  Last Orbital Rotation      ...    1.7512e-04  Tolerance :   5.0000e-05


----------------
ORBITAL ENERGIES
----------------

  NO   OCC          E(Eh)            E(eV) 
   0   2.0000      -1.387320       -37.7509 
   1   2.0000      -1.382371       -37.6162 
   2   2.0000      -1.380444       -37.5638 
   3   2.0000      -1.379991       -37.5515 
   4   2.0000      -1.379656       -37.5423 
   5   2.0000      -1.376269       -37.4502 
   6   2.0000      -1.370793       -37.3012 
   7   2.0000      -1.366959       -37.1969 
   8   2.0000      -1.278702       -34.7952 
   9   2.0000      -1.184564       -32.2336 
  10   2.0000      -1.060313       -28.8526 
  11   2.0000      -1.052674       -28.6447 
  12   2.0000      -1.042045       -28.3555 
  13   2.0000      -1.030201       -28.0332 
  14   2.0000      -0.985617       -26.8200 
  15   2.0000      -0.962895       -26.2017 
  16   2.0000      -0.949410       -25.8348 
  17   2.0000      -0.922303       -25.0971 
  18   2.0000      -0.921206       -25.0673 
  19   2.0000      -0.918876       -25.0039 
  20   2.0000      -0.917482       -24.9660 
  21   2.0000      -0.915675       -24.9168 
  22   2.0000      -0.898994       -24.4629 
  23   2.0000      -0.857817       -23.3424 
  24   2.0000      -0.834352       -22.7039 
  25   2.0000      -0.801033       -21.7972 
  26   2.0000      -0.795583       -21.6489 
  27   2.0000      -0.793339       -21.5879 
  28   2.0000      -0.780962       -21.2511 
  29   2.0000      -0.777611       -21.1599 
  30   2.0000      -0.768199       -20.9038 
  31   2.0000      -0.759885       -20.6775 
  32   2.0000      -0.738457       -20.0944 
  33   2.0000      -0.737723       -20.0745 
  34   2.0000      -0.713802       -19.4236 
  35   2.0000      -0.709656       -19.3107 
  36   2.0000      -0.694171       -18.8894 
  37   2.0000      -0.690320       -18.7845 
  38   2.0000      -0.685172       -18.6445 
  39   2.0000      -0.684479       -18.6256 
  40   2.0000      -0.678340       -18.4586 
  41   2.0000      -0.671477       -18.2718 
  42   2.0000      -0.663752       -18.0616 
  43   2.0000      -0.644435       -17.5360 
  44   2.0000      -0.643572       -17.5125 
  45   2.0000      -0.640093       -17.4178 
  46   2.0000      -0.639434       -17.3999 
  47   2.0000      -0.638337       -17.3700 
  48   2.0000      -0.634203       -17.2576 
  49   2.0000      -0.631013       -17.1707 
  50   2.0000      -0.622464       -16.9381 
  51   2.0000      -0.618410       -16.8278 
  52   2.0000      -0.616088       -16.7646 
  53   2.0000      -0.615189       -16.7401 
  54   2.0000      -0.611374       -16.6363 
  55   2.0000      -0.608528       -16.5589 
  56   2.0000      -0.605973       -16.4894 
  57   2.0000      -0.604111       -16.4387 
  58   2.0000      -0.598815       -16.2946 
  59   2.0000      -0.595454       -16.2031 
  60   2.0000      -0.592408       -16.1202 
  61   2.0000      -0.588284       -16.0080 
  62   2.0000      -0.585595       -15.9349 
  63   2.0000      -0.579621       -15.7723 
  64   2.0000      -0.572122       -15.5682 
  65   2.0000      -0.567374       -15.4390 
  66   2.0000      -0.554694       -15.0940 
  67   2.0000      -0.553092       -15.0504 
  68   2.0000      -0.549850       -14.9622 
  69   2.0000      -0.542322       -14.7573 
  70   2.0000      -0.536883       -14.6093 
  71   2.0000      -0.536406       -14.5964 
  72   2.0000      -0.532474       -14.4894 
  73   2.0000      -0.525385       -14.2965 
  74   2.0000      -0.519977       -14.1493 
  75   2.0000      -0.515304       -14.0221 
  76   2.0000      -0.512965       -13.9585 
  77   2.0000      -0.505482       -13.7549 
  78   2.0000      -0.502641       -13.6776 
  79   2.0000      -0.500336       -13.6148 
  80   2.0000      -0.499601       -13.5948 
  81   2.0000      -0.493312       -13.4237 
  82   2.0000      -0.492616       -13.4047 
  83   2.0000      -0.487721       -13.2716 
  84   2.0000      -0.485393       -13.2082 
  85   2.0000      -0.468754       -12.7554 
  86   2.0000      -0.464004       -12.6262 
  87   2.0000      -0.461683       -12.5630 
  88   2.0000      -0.459275       -12.4975 
  89   2.0000      -0.422382       -11.4936 
  90   2.0000      -0.401446       -10.9239 
  91   2.0000      -0.388406       -10.5691 
  92   2.0000      -0.370921       -10.0933 
  93   2.0000      -0.369917       -10.0660 
  94   2.0000      -0.369485       -10.0542 
  95   2.0000      -0.367998       -10.0137 
  96   2.0000      -0.351828        -9.5737 
  97   2.0000      -0.335629        -9.1329 
  98   0.0000      -0.010917        -0.2971 
  99   0.0000       0.016900         0.4599 
 100   0.0000       0.046545         1.2665 
 101   0.0000       0.046838         1.2745 
 102   0.0000       0.048101         1.3089 
 103   0.0000       0.049091         1.3358 
 104   0.0000       0.049790         1.3549 
 105   0.0000       0.073076         1.9885 
 106   0.0000       0.077974         2.1218 
 107   0.0000       0.081585         2.2201 
 108   0.0000       0.086047         2.3415 
*Only the first 10 virtual orbitals were printed.

                    ********************************
                    * MULLIKEN POPULATION ANALYSIS *
                    ********************************

-----------------------
MULLIKEN ATOMIC CHARGES
-----------------------
   0 C :   -0.064601
   1 C :   -0.064357
   2 C :   -0.043327
   3 C :   -0.041284
   4 C :    0.037098
   5 C :    0.198391
   6 F :   -0.228055
   7 C :   -0.128611
   8 C :   -0.086164
   9 C :    0.070055
  10 C :    0.241391
  11 F :   -0.216369
  12 C :   -0.155315
  13 C :    0.285306
  14 O :   -0.279029
  15 O :   -0.221148
  16 C :    0.063725
  17 C :    0.048992
  18 C :    0.176454
  19 F :   -0.228549
  20 C :   -0.112384
  21 C :   -0.078627
  22 C :    0.061577
  23 C :    0.171293
  24 F :   -0.214908
  25 C :    0.193050
  26 F :   -0.209640
  27 C :    0.173434
  28 F :   -0.217358
  29 C :    0.026072
  30 C :    0.044911
  31 C :    0.044887
  32 C :    0.226560
  33 F :   -0.204819
  34 C :    0.065423
  35 C :    0.199441
  36 F :   -0.226326
  37 C :    0.037240
  38 H :    0.036252
  39 H :    0.028836
  40 H :    0.028810
  41 H :    0.042671
  42 H :    0.042265
  43 H :    0.043673
  44 H :    0.044291
  45 H :    0.031463
  46 H :    0.048570
  47 H :    0.064187
  48 H :    0.048348
  49 H :    0.043749
  50 H :    0.037787
  51 H :    0.032914
  52 H :    0.049691
  53 H :    0.032064
Sum of atomic charges:   -0.0000000

--------------------------------
MULLIKEN REDUCED ORBITAL CHARGES
--------------------------------
  0 C s       :     0.937866  s :     0.937866
      pz      :     1.043541  p :     3.052465
      px      :     0.960639
      py      :     1.048285
      dz2     :     0.007235  d :     0.074270
      dxz     :     0.020607
      dyz     :     0.016074
      dx2y2   :     0.017289
      dxy     :     0.013064

  1 C s       :     1.007606  s :     1.007606
      pz      :     1.019587  p :     2.955002
      px      :     0.949891
      py      :     0.985523
      dz2     :     0.014776  d :     0.101749
      dxz     :     0.024933
      dyz     :     0.019592
      dx2y2   :     0.025399
      dxy     :     0.017050

  2 C s       :     0.968507  s :     0.968507
      pz      :     1.030918  p :     2.974394
      px      :     0.934574
      py      :     1.008903
      dz2     :     0.016601  d :     0.100426
      dxz     :     0.022339
      dyz     :     0.018243
      dx2y2   :     0.026732
      dxy     :     0.016512

  3 C s       :     1.043411  s :     1.043411
      pz      :     0.955092  p :     2.868885
      px      :     0.976079
      py      :     0.937715
      dz2     :     0.029495  d :     0.128988
      dxz     :     0.033800
      dyz     :     0.016938
      dx2y2   :     0.022721
      dxy     :     0.026034

  4 C s       :     0.960934  s :     0.960934
      pz      :     0.988659  p :     2.914957
      px      :     0.916896
      py      :     1.009402
      dz2     :     0.018602  d :     0.087011
      dxz     :     0.020065
      dyz     :     0.011697
      dx2y2   :     0.016495
      dxy     :     0.020152

  5 C s       :     1.059526  s :     1.059526
      pz      :     0.825782  p :     2.556892
      px      :     0.821030
      py      :     0.910080
      dz2     :     0.043932  d :     0.185191
      dxz     :     0.047417
      dyz     :     0.024099
      dx2y2   :     0.032180
      dxy     :     0.037562

  6 F s       :     1.886071  s :     1.886071
      pz      :     1.720000  p :     5.318387
      px      :     1.714028
      py      :     1.884360
      dz2     :     0.004740  d :     0.023596
      dxz     :     0.007673
      dyz     :     0.003497
      dx2y2   :     0.003468
      dxy     :     0.004219

  7 C s       :     0.989678  s :     0.989678
      pz      :     1.012072  p :     3.027909
      px      :     0.971218
      py      :     1.044619
      dz2     :     0.023313  d :     0.111024
      dxz     :     0.031057
      dyz     :     0.013401
      dx2y2   :     0.020054
      dxy     :     0.023199

  8 C s       :     1.015494  s :     1.015494
      pz      :     0.946294  p :     2.940048
      px      :     0.978817
      py      :     1.014936
      dz2     :     0.010654  d :     0.130622
      dxz     :     0.021596
      dyz     :     0.023275
      dx2y2   :     0.037591
      dxy     :     0.037506

  9 C s       :     0.969248  s :     0.969248
      pz      :     0.995200  p :     2.873716
      px      :     0.886102
      py      :     0.992414
      dz2     :     0.006292  d :     0.086980
      dxz     :     0.019835
      dyz     :     0.009791
      dx2y2   :     0.030029
      dxy     :     0.021033

 10 C s       :     1.058252  s :     1.058252
      pz      :     0.893827  p :     2.512201
      px      :     0.804323
      py      :     0.814051
      dz2     :     0.013654  d :     0.188156
      dxz     :     0.035114
      dyz     :     0.031716
      dx2y2   :     0.056921
      dxy     :     0.050751

 11 F s       :     1.884714  s :     1.884714
      pz      :     1.906640  p :     5.307703
      px      :     1.709863
      py      :     1.691200
      dz2     :     0.002789  d :     0.023953
      dxz     :     0.003646
      dyz     :     0.003593
      dx2y2   :     0.005474
      dxy     :     0.008451

 12 C s       :     1.011403  s :     1.011403
      pz      :     1.113863  p :     3.044990
      px      :     0.922775
      py      :     1.008352
      dz2     :     0.009790  d :     0.098922
      dxz     :     0.016460
      dyz     :     0.019144
      dx2y2   :     0.026192
      dxy     :     0.027335

 13 C s       :     1.078798  s :     1.078798
      pz      :     0.711437  p :     2.356030
      px      :     0.867509
      py      :     0.777085
      dz2     :     0.072424  d :     0.279865
      dxz     :     0.076197
      dyz     :     0.036082
      dx2y2   :     0.045641
      dxy     :     0.049521

 14 O s       :     1.762197  s :     1.762197
      pz      :     1.355971  p :     4.478013
      px      :     1.747290
      py      :     1.374752
      dz2     :     0.012668  d :     0.038819
      dxz     :     0.006610
      dyz     :     0.009978
      dx2y2   :     0.005587
      dxy     :     0.003975

 15 O s       :     1.651012  s :     1.651012
      pz      :     1.590027  p :     4.527264
      px      :     1.236493
      py      :     1.700744
      dz2     :     0.008288  d :     0.042872
      dxz     :     0.011114
      dyz     :     0.005709
      dx2y2   :     0.009012
      dxy     :     0.008750

 16 C s       :     1.040330  s :     1.040330
      pz      :     0.996911  p :     2.724760
      px      :     0.704232
      py      :     1.023617
      dz2     :     0.020746  d :     0.171184
      dxz     :     0.036860
      dyz     :     0.017510
      dx2y2   :     0.047108
      dxy     :     0.048960

 17 C s       :     0.968645  s :     0.968645
      pz      :     0.980653  p :     2.898282
      px      :     0.927443
      py      :     0.990186
      dz2     :     0.009003  d :     0.084080
      dxz     :     0.019791
      dyz     :     0.010971
      dx2y2   :     0.022542
      dxy     :     0.021774

 18 C s       :     1.060336  s :     1.060336
      pz      :     0.890007  p :     2.579153
      px      :     0.910654
      py      :     0.778492
      dz2     :     0.024079  d :     0.184058
      dxz     :     0.035510
      dyz     :     0.026829
      dx2y2   :     0.049008
      dxy     :     0.048631

 19 F s       :     1.885801  s :     1.885801
      pz      :     1.835165  p :     5.319131
      px      :     1.841407
      py      :     1.642559
      dz2     :     0.003607  d :     0.023617
      dxz     :     0.003023
      dyz     :     0.005614
      dx2y2   :     0.005321
      dxy     :     0.006051

 20 C s       :     0.993148  s :     0.993148
      pz      :     1.032881  p :     3.001026
      px      :     0.975223
      py      :     0.992922
      dz2     :     0.015565  d :     0.118211
      dxz     :     0.025758
      dyz     :     0.014763
      dx2y2   :     0.030877
      dxy     :     0.031247

 21 C s       :     0.999365  s :     0.999365
      pz      :     0.977310  p :     2.950916
      px      :     0.985299
      py      :     0.988308
      dz2     :     0.009422  d :     0.128345
      dxz     :     0.022992
      dyz     :     0.023247
      dx2y2   :     0.038204
      dxy     :     0.034480

 22 C s       :     0.973873  s :     0.973873
      pz      :     0.986718  p :     2.875824
      px      :     0.909389
      py      :     0.979716
      dz2     :     0.006487  d :     0.088726
      dxz     :     0.020128
      dyz     :     0.011169
      dx2y2   :     0.027664
      dxy     :     0.023277

 23 C s       :     1.058167  s :     1.058167
      pz      :     0.947028  p :     2.587132
      px      :     0.905772
      py      :     0.734332
      dz2     :     0.013369  d :     0.183408
      dxz     :     0.031946
      dyz     :     0.035295
      dx2y2   :     0.050046
      dxy     :     0.052752

 24 F s       :     1.887919  s :     1.887919
      pz      :     1.882224  p :     5.303073
      px      :     1.835414
      py      :     1.585435
      dz2     :     0.003039  d :     0.023917
      dxz     :     0.002188
      dyz     :     0.005618
      dx2y2   :     0.005945
      dxy     :     0.007126

 25 C s       :     1.045735  s :     1.045735
      pz      :     1.010264  p :     2.586061
      px      :     0.643919
      py      :     0.931878
      dz2     :     0.011617  d :     0.175154
      dxz     :     0.044964
      dyz     :     0.020401
      dx2y2   :     0.039989
      dxy     :     0.058183

 26 F s       :     1.889023  s :     1.889023
      pz      :     1.912352  p :     5.296196
      px      :     1.436678
      py      :     1.947166
      dz2     :     0.002780  d :     0.024421
      dxz     :     0.007362
      dyz     :     0.000057
      dx2y2   :     0.008611
      dxy     :     0.005610

 27 C s       :     1.058106  s :     1.058106
      pz      :     0.948961  p :     2.585585
      px      :     0.899756
      py      :     0.736868
      dz2     :     0.012944  d :     0.182875
      dxz     :     0.031666
      dyz     :     0.035297
      dx2y2   :     0.050801
      dxy     :     0.052168

 28 F s       :     1.888269  s :     1.888269
      pz      :     1.894243  p :     5.305237
      px      :     1.823274
      py      :     1.587720
      dz2     :     0.002907  d :     0.023852
      dxz     :     0.002257
      dyz     :     0.005327
      dx2y2   :     0.005977
      dxy     :     0.007384

 29 C s       :     0.968764  s :     0.968764
      pz      :     1.018047  p :     2.916241
      px      :     0.924424
      py      :     0.973770
      dz2     :     0.005927  d :     0.088923
      dxz     :     0.020764
      dyz     :     0.011048
      dx2y2   :     0.028049
      dxy     :     0.023135

 30 C s       :     0.981908  s :     0.981908
      pz      :     0.966964  p :     2.875106
      px      :     0.951604
      py      :     0.956539
      dz2     :     0.008903  d :     0.098074
      dxz     :     0.024408
      dyz     :     0.010967
      dx2y2   :     0.022833
      dxy     :     0.030963

 31 C s       :     0.976431  s :     0.976431
      pz      :     0.977820  p :     2.889141
      px      :     0.949505
      py      :     0.961817
      dz2     :     0.009525  d :     0.089541
      dxz     :     0.021437
      dyz     :     0.009426
      dx2y2   :     0.019338
      dxy     :     0.029815

 32 C s       :     1.064872  s :     1.064872
      pz      :     0.872309  p :     2.519044
      px      :     0.951829
      py      :     0.694907
      dz2     :     0.014482  d :     0.189523
      dxz     :     0.030670
      dyz     :     0.036458
      dx2y2   :     0.051272
      dxy     :     0.056642

 33 F s       :     1.884392  s :     1.884392
      pz      :     1.872667  p :     5.296138
      px      :     1.926078
      py      :     1.497394
      dz2     :     0.003199  d :     0.024288
      dxz     :     0.000901
      dyz     :     0.007142
      dx2y2   :     0.007400
      dxy     :     0.005646

 34 C s       :     0.970532  s :     0.970532
      pz      :     0.985927  p :     2.877216
      px      :     0.932410
      py      :     0.958880
      dz2     :     0.008080  d :     0.086829
      dxz     :     0.015936
      dyz     :     0.012006
      dx2y2   :     0.022922
      dxy     :     0.027884

 35 C s       :     1.059629  s :     1.059629
      pz      :     0.722394  p :     2.555473
      px      :     0.965417
      py      :     0.867661
      dz2     :     0.044946  d :     0.185456
      dxz     :     0.049424
      dyz     :     0.027756
      dx2y2   :     0.027278
      dxy     :     0.036052

 36 F s       :     1.886064  s :     1.886064
      pz      :     1.593145  p :     5.316594
      px      :     1.929182
      py      :     1.794267
      dz2     :     0.007528  d :     0.023668
      dxz     :     0.004445
      dyz     :     0.007458
      dx2y2   :     0.002374
      dxy     :     0.001864

 37 C s       :     0.961088  s :     0.961088
      pz      :     0.983085  p :     2.914683
      px      :     0.938696
      py      :     0.992902
      dz2     :     0.017512  d :     0.086989
      dxz     :     0.026083
      dyz     :     0.009555
      dx2y2   :     0.014982
      dxy     :     0.018856

 38 H s       :     0.918678  s :     0.918678
      pz      :     0.014357  p :     0.045070
      px      :     0.013419
      py      :     0.017294

 39 H s       :     0.926387  s :     0.926387
      pz      :     0.014141  p :     0.044777
      px      :     0.010801
      py      :     0.019834

 40 H s       :     0.926412  s :     0.926412
      pz      :     0.019236  p :     0.044777
      px      :     0.014604
      py      :     0.010937

 41 H s       :     0.914248  s :     0.914248
      pz      :     0.019486  p :     0.043080
      px      :     0.013569
      py      :     0.010025

 42 H s       :     0.914636  s :     0.914636
      pz      :     0.013154  p :     0.043099
      px      :     0.010218
      py      :     0.019727

 43 H s       :     0.912138  s :     0.912138
      pz      :     0.013781  p :     0.044189
      px      :     0.009774
      py      :     0.020634

 44 H s       :     0.911510  s :     0.911510
      pz      :     0.020144  p :     0.044199
      px      :     0.013694
      py      :     0.010361

 45 H s       :     0.917221  s :     0.917221
      pz      :     0.022859  p :     0.051316
      px      :     0.010161
      py      :     0.018296

 46 H s       :     0.899139  s :     0.899139
      pz      :     0.015901  p :     0.052291
      px      :     0.010712
      py      :     0.025678

 47 H s       :     0.880461  s :     0.880461
      pz      :     0.017869  p :     0.055352
      px      :     0.016538
      py      :     0.020945

 48 H s       :     0.899350  s :     0.899350
      pz      :     0.014746  p :     0.052303
      px      :     0.014359
      py      :     0.023197

 49 H s       :     0.903763  s :     0.903763
      pz      :     0.015982  p :     0.052489
      px      :     0.013888
      py      :     0.022619

 50 H s       :     0.910756  s :     0.910756
      pz      :     0.016928  p :     0.051457
      px      :     0.014594
      py      :     0.019935

 51 H s       :     0.915991  s :     0.915991
      pz      :     0.016081  p :     0.051095
      px      :     0.014288
      py      :     0.020726

 52 H s       :     0.898125  s :     0.898125
      pz      :     0.014513  p :     0.052184
      px      :     0.018733
      py      :     0.018938

 53 H s       :     0.916629  s :     0.916629
      pz      :     0.018638  p :     0.051307
      px      :     0.017737
      py      :     0.014932



                     *******************************
                     * LOEWDIN POPULATION ANALYSIS *
                     *******************************

----------------------
LOEWDIN ATOMIC CHARGES
----------------------
   0 C :   -0.110627
   1 C :   -0.079712
   2 C :   -0.071054
   3 C :   -0.017491
   4 C :   -0.031588
   5 C :    0.048091
   6 F :   -0.067033
   7 C :   -0.038241
   8 C :   -0.016933
   9 C :   -0.016681
  10 C :    0.052635
  11 F :   -0.059890
  12 C :   -0.030786
  13 C :   -0.026688
  14 O :   -0.095416
  15 O :    0.034562
  16 C :   -0.008797
  17 C :   -0.010434
  18 C :    0.045397
  19 F :   -0.066792
  20 C :   -0.039850
  21 C :   -0.031659
  22 C :   -0.012870
  23 C :    0.038657
  24 F :   -0.060387
  25 C :    0.038322
  26 F :   -0.056075
  27 C :    0.037257
  28 F :   -0.062684
  29 C :   -0.021824
  30 C :   -0.017480
  31 C :   -0.028931
  32 C :    0.056652
  33 F :   -0.049570
  34 C :   -0.015230
  35 C :    0.048231
  36 F :   -0.065341
  37 C :   -0.031111
  38 H :    0.046564
  39 H :    0.043136
  40 H :    0.043177
  41 H :    0.045825
  42 H :    0.045712
  43 H :    0.053321
  44 H :    0.053515
  45 H :    0.054004
  46 H :    0.058763
  47 H :    0.057378
  48 H :    0.059050
  49 H :    0.056647
  50 H :    0.054956
  51 H :    0.055835
  52 H :    0.059242
  53 H :    0.054249

-------------------------------
LOEWDIN REDUCED ORBITAL CHARGES
-------------------------------
  0 C s       :     0.766788  s :     0.766788
      pz      :     1.063111  p :     3.098512
      px      :     0.971893
      py      :     1.063508
      dz2     :     0.022878  d :     0.245327
      dxz     :     0.069933
      dyz     :     0.053300
      dx2y2   :     0.055533
      dxy     :     0.043683

[...]
  28 F       0.100001      0.030234     -0.058302      0.021757      0.005978     -0.124193     -0.041591      0.050286      0.052732     -0.079851
  29 C       0.570991      0.176402      0.044264      0.161242      0.150624     -0.294874     -0.042158      0.035722      0.087830     -0.048163
  30 C      -0.493956      0.171970      0.036105      0.030783     -0.113603      0.264368     -0.125154      0.030211     -0.181344      0.020956
  31 C       0.567099      0.218043     -0.033340      0.035415     -0.009200     -0.286097      0.148702     -0.102995     -0.199035      0.072406
  32 C      -0.307240     -0.001374      0.104974     -0.307684      0.098276      0.156330     -0.044907     -0.058666     -0.042156     -0.059757
  33 F      -0.009280     -0.132424     -0.052383      0.055104     -0.008277     -0.088803      0.032672     -0.001017      0.101751      0.064231
  34 C       0.597432     -0.340318     -0.124419      0.129459     -0.188256     -0.180122      0.044490     -0.005642      0.166332     -0.008219
  35 C      -0.345520     -0.099449      0.105444     -0.171428      0.289328     -0.026166     -0.094347      0.115999      0.015580      0.062677
  36 F      -0.039877      0.098628      0.027337      0.031300     -0.046581     -0.035660      0.054091     -0.069639      0.028934     -0.122694
  37 C       0.543529      0.088361      0.179007      0.143202     -0.107320     -0.051743      0.084429     -0.180854      0.115532     -0.202137
  38 H       0.004193     -0.057567     -0.030630     -0.014236     -0.014853     -0.004071     -0.001014     -0.008098     -0.002478     -0.020280
  39 H      -0.016467      0.039764     -0.026994      0.015666     -0.013141     -0.009908     -0.002869     -0.016525     -0.003268      0.013848
  40 H       0.008576     -0.006064      0.052017      0.003859      0.014347     -0.004858     -0.001105     -0.002646      0.025848     -0.003016
  41 H      -0.029142      0.027825     -0.044603      0.005084     -0.013977     -0.002601      0.001913     -0.001722     -0.022751      0.008491
  42 H       0.004665     -0.026634      0.051194     -0.012808      0.020676      0.006343      0.003633      0.008682      0.010201     -0.008719
  43 H       0.000366      0.025181     -0.048217      0.010388     -0.014817     -0.005590     -0.003388     -0.006774     -0.009692      0.007262
  44 H       0.025413     -0.025942      0.038698     -0.003770      0.011433      0.004583     -0.003424      0.004296      0.019746     -0.005596
  45 H       0.019296      0.020203     -0.035660      0.007655     -0.015743      0.005086     -0.000488      0.004798     -0.011484      0.009414
  46 H       0.024868      0.045252     -0.010584      0.018314     -0.004966      0.006755     -0.000422      0.004713     -0.006263      0.013234
  47 H       0.028416     -0.036404      0.027489     -0.014166      0.007682      0.008239     -0.001898      0.008893      0.010851     -0.012855
  48 H       0.037889     -0.041508     -0.008233     -0.014070     -0.005043      0.009499      0.000524      0.007975     -0.004012     -0.011591
  49 H       0.032785      0.039274      0.017522      0.013963      0.009435      0.009347      0.000367      0.007968      0.007101      0.010837
  50 H      -0.035863      0.038944     -0.025741      0.014099     -0.013850     -0.006637     -0.001133     -0.007884     -0.013056      0.011724
  51 H       0.027498      0.039394     -0.017495      0.013212     -0.006903      0.005206      0.001403      0.006459     -0.010390      0.013133
  52 H       0.047189     -0.031311      0.002682     -0.009994     -0.002208      0.013117     -0.000826      0.011528      0.002659     -0.009245
  53 H       0.041700     -0.009597      0.026062     -0.003879      0.007876      0.009576      0.000062      0.011670      0.009453     -0.005663

 MBIS THIRD RADIAL MOMENT (A.U.):
  ATOM      <r^3>
   0 C   44.304726
   1 C   40.825689
   2 C   41.884306
   3 C   33.498849
   4 C   41.063460
   5 C   29.797637
   6 F   18.095347
   7 C   38.858705
   8 C   32.194490
   9 C   40.521876
  10 C   28.929708
  11 F   18.105147
  12 C   41.953903
  13 C   22.264311
  14 O   25.734992
  15 O   23.923743
  16 C   29.505810
  17 C   41.292763
  18 C   29.754805
  19 F   18.097034
  20 C   37.143960
  21 C   33.507181
  22 C   39.656829
  23 C   31.610796
  24 F   18.089705
  25 C   33.829008
  26 F   17.901953
  27 C   31.654165
  28 F   18.110606
  29 C   39.955440
  30 C   36.593479
  31 C   39.787429
  32 C   28.766099
  33 F   18.089497
  34 C   40.460606
  35 C   29.763097
  36 F   18.077469
  37 C   41.042361
  38 H    2.352877
  39 H    2.379526
  40 H    2.378753
  41 H    2.286328
  42 H    2.287143
  43 H    2.213024
  44 H    2.210777
  45 H    2.018150
  46 H    1.913430
  47 H    1.790749
  48 H    1.923337
  49 H    1.972826
  50 H    2.132666
  51 H    2.043550
  52 H    1.908413
  53 H    2.016084

-------------------------
RESP CHARGES GENERATION
-------------------------
Number of atoms                    ...           54
Number of "pure atoms"             ...           54
Grid spacing                       ...     0.300000
Point Cut-Off                      ...     2.800000
Van-der-Waals Radii                ...        COSMO
Total charge                       ...            0
Penalty function                   ... hyperbolic
Penalty function wa                ... 0.000500
Penalty function wb                ... 0.100000
Dipole moment constraint           ...        FALSE
Equivalent atom charge constraint  ...        FALSE

Grid generated                     ...      0.0 sec
Grid points                        ...        28302
Potential calculated               ...     10.5 sec
RespFile stored                    ...           ok

Iter     dqmax
--------------

0     0.922738
1     0.039741
2     0.005113
3     0.000696
4     0.000095
5     0.000013
6     0.000002
7     0.000000

Charges calculated                 ...      1.4 sec

RESP Charges            
--------------------------------
  0   C   :      -0.446120
  1   C   :       0.259903
  2   C   :      -0.100348
  3   C   :       0.091845
  4   C   :      -0.392117
  5   C   :       0.335332
  6   F   :      -0.200584
  7   C   :      -0.234795
  8   C   :       0.419361
  9   C   :      -0.516280
 10   C   :       0.506392
 11   F   :      -0.215098
 12   C   :      -0.581745
 13   C   :       0.915819
 14   O   :      -0.526562
 15   O   :      -0.393389
 16   C   :       0.423884
 17   C   :      -0.517134
 18   C   :       0.370913
 19   F   :      -0.199722
 20   C   :      -0.000159
 21   C   :       0.146790
 22   C   :      -0.437644
 23   C   :       0.332641
 24   F   :      -0.187314
 25   C   :       0.092206
 26   F   :      -0.151226
 27   C   :       0.301296
 28   F   :      -0.183020
 29   C   :      -0.416359
 30   C   :      -0.211855
 31   C   :      -0.317861
 32   C   :       0.543591
 33   F   :      -0.215338
 34   C   :      -0.545235
 35   C   :       0.337692
 36   F   :      -0.193611
 37   C   :      -0.400508
 38   H   :       0.108613
 39   H   :       0.103597
 40   H   :       0.104854
 41   H   :      -0.016937
 42   H   :      -0.018449
 43   H   :       0.063139
 44   H   :       0.063628
 45   H   :       0.221224
 46   H   :       0.247735
 47   H   :       0.275545
 48   H   :       0.244230
 49   H   :       0.232696
 50   H   :       0.187891
 51   H   :       0.212196
 52   H   :       0.252961
 53   H   :       0.223439
--------------------------------
Total charge:     0.000000
--------------------------------

RESP charges calculated...

Timings:
Grid generation                 ...        0.020 sec (=   0.000 min)
Potential calculation           ...       10.529 sec (=   0.175 min)
Fit to the potential            ...        1.375 sec (=   0.023 min)
------------------------------------------------------------------------------

-------
TIMINGS
-------

Total SCF time: 0 days 0 hours 12 min 20 sec 

Total time                  ....     740.174 sec
Sum of individual times     ....     717.785 sec  ( 97.0%)

SCF preparation             ....       3.679 sec  (  0.5%)
Fock matrix formation       ....     589.023 sec  ( 79.6%)
  Startup                   ....       0.077 sec  (  0.0% of F)
  Split-RI-J                ....      45.210 sec  (  7.7% of F)
  Chain of spheres X        ....     545.794 sec  ( 92.7% of F)
  XC integration            ....      19.110 sec  (  3.2% of F)
    XC Preparation          ....       0.000 sec  (  0.0% of XC)
    Basis function eval.    ....       4.788 sec  ( 25.1% of XC)
    Density eval.           ....       4.049 sec  ( 21.2% of XC)
    XC-Functional eval.     ....       1.165 sec  (  6.1% of XC)
    XC-Potential eval.      ....       4.977 sec  ( 26.0% of XC)
Diagonalization             ....       0.000 sec  (  0.0%)
Density matrix formation    ....       0.485 sec  (  0.1%)
Total Energy calculation    ....       0.380 sec  (  0.1%)
Population analysis         ....     120.070 sec  ( 16.2%)
Orbital Transformation      ....       0.510 sec  (  0.1%)
Orbital Orthonormalization  ....       0.000 sec  (  0.0%)
DIIS solution               ....       2.553 sec  (  0.3%)
SOSCF solution              ....       1.085 sec  (  0.1%)
Finished LeanSCF after 740.2 sec

Maximum memory used throughout the entire LEANSCF-calculation: 117.0 MB


-------------------------------------------------------------------------------
                          DFT DISPERSION CORRECTION                            
                                                                               
                                DFTD4 V3.4.0                                   
-------------------------------------------------------------------------------
The wB97X-3c composite method is recognized
Using three-body term ABC
Active option DFTDOPT                   ...         5   

-------------------------   ----------------
Dispersion correction           -0.087664410
-------------------------   ----------------


-------------------------   --------------------
FINAL SINGLE POINT ENERGY      -395.799681372170
-------------------------   --------------------



           ************************************************************
           *        Program running with 4 parallel MPI-processes     *
           *              working on a common directory               *
           ************************************************************

------------------------------------------------------------------------------
                              ORCA PROPERTY CALCULATIONS
------------------------------------------------------------------------------

GBWName                                 ... conf_015.gbw
Number of atoms                         ...     54
Number of basis functions               ...    574
Max core memory                         ...   4000 MB

Electric properties:
Dipole moment                           ... YES
Quadrupole moment                       ...  NO
Static polarizability (Dipole/Dipole)   ...  NO
Static polarizability (Dipole/Quad.)    ...  NO
Static polarizability (Quad./Quad.)     ...  NO
Static polarizability (Velocity)        ...  NO
Static hyperpolarizability              ...  NO

Atomic electric properties:
Dipole moment                           ...  NO
Quadrupole moment                       ...  NO
Static polarizability                   ...  NO

Choice of electric origin               ... Center of mass
Position of electric origin             ...    -2.931158    -0.422720     0.558651

General magnetic properties:
Magnetizability                         ...  NO

EPR properties:
g-Tensor (aka g-matrix)                 ...  NO
Zero-Field splitting spin-orbit         ...  NO
Zero-field splitting spin-spin          ...  NO
Hyperfine couplings                     ...  NO (   0 nuclei)
Quadrupole couplings                    ...  NO (   0 nuclei)
Contact density                         ...  NO (   0 nuclei)

NMR properties:
Chemical shifts                         ...  NO (   0 nuclei)
Spin-rotation constants                 ...  NO (   0 nuclei)
Spin-spin couplings                     ...  NO (   0 nuclei,    0 pairs)

Choice of magnetic origin               ... GIAO
Position of magnetic origin             ...     0.000000     0.000000     0.000000

Properties with geometric perturbations:
SCF Hessian                             ...  NO
IR spectrum                             ...  NO
VCD spectrum                            ...  NO
X-ray spectroscopy properties:
SCF XES/XAS/RIXS spectra                ...  NO

SCF SOC stabilization energy            ...  NO
Diagonal Born-Oppenheimer correction    ...  NO

-------------
DIPOLE MOMENT
-------------

Method             : SCF
Type of density    : Electron Density
Multiplicity       :   1
Irrep              :   0
Energy             :  -395.7120169619568628 Eh
Basis              : AO
                                X                 Y                 Z
Electronic contribution:    -70.625434192      -7.493980736      11.082381409
Nuclear contribution   :     74.382940399       8.659516473     -12.186972968
                        -----------------------------------------
Total Dipole Moment    :      3.757506207       1.165535738      -1.104591559
                        -----------------------------------------
Magnitude (a.u.)       :      4.086251211
Magnitude (Debye)      :     10.386425157



--------------------
Rotational spectrum 
--------------------
 
Rotational constants in cm-1:             0.012603             0.000752             0.000731 
Rotational constants in MHz :           377.822589            22.554087            21.904613 

Dipole components along the rotational axes: 
x,y,z [a.u.] :    -3.874037    -1.220271     0.447467 
x,y,z [Debye]:    -9.847019    -3.101682     1.137372 

 

Dipole moment calculation done in   0.0 sec 

Maximum memory used throughout the entire PROP-calculation: 57.6 MB

--------------------------------
SUGGESTED CITATIONS FOR THIS RUN
--------------------------------

Below you find a list of papers that are relevant to this ORCA run
We neither can nor want to force you to cite these papers, but we appreciate if you do
You receive ORCA, which is the product of decades of hard work by many enthusiastic individuals, for free
The only thing we kindly ask in return is that you cite our papers,
We deeply appreciate it, if you show your appreciation for ORCA by not just citing the generic ORCA reference.

Please note that relegating all ORCA citations to the supporting information does *not* help us.
SI sections are not indexed - citations you put there will not count into any citation statistics
But we need these citations in order to attract the funding resources that allow us to do what we are doing

Therefore, if you are a happy ORCA user, please consider citing a few of the papers listed below in the main body of your paper

In addition to the list printed below, the program has created the file conf_015.bibtex that contains the list in bibtex format
You can import this file easily into all common literature databanks and citation aid programs


List of essential papers. We consider these as the minimum necessary citations

  1. Mueller, M.; Hansen, A.; Grimme, S.
     wB97X-3c: A composite range-separated hybrid DFT method with a molecule-optimized polarized valence double-zeta basis set
     J. Chem. Phys. 2023 158 , 014103
     doi.org/10.1063/5.0133026
  2. Neese, F.
     Software update: the ORCA program system, version 6.0
     WIRES Comput. Molec. Sci. 2025 15(1), e70019
     doi.org/10.1002/wcms.7019

List of papers to cite with high priority. The work reported in these papers was absolutely
necessary for this run to complete.
Our perspective: the developers of density functionals and basis sets usually get cited in chemistry papers
Good! But without the algorithms to do something with them, the functionals or basis sets would not do anything.
Hence, in our opinion, the algorithm design and method developments papers are equally worthy of getting cited

  1. Neese, F.
     An improvement of the resolution of the identity approximation for the formation of the Coulomb matrix
     J. Comp. Chem. 2003 24(14), 1740-1747
     doi.org/10.1002/jcc.10318
  2. Neese, F.; Wennmohs, F.; Hansen, A.; Becker, U.
     Efficient, approximate and parallel Hartree-Fock and hybrid DFT calculations. A 'chain-of-spheres' algorithm for the Hartree-Fock exchange
     Chem. Phys. 2009 356(1-3), 98-109
     doi.org/10.1016/j.chemphys.2008.10.036
  3. Caldeweyher, E.; Bannwarth, C.; Grimme, S.
     Extension of the D3 dispersion coefficient model
     J. Chem. Phys. 2017 147 , 034112
     doi.org/10.1063/1.4993215
  4. Caldeweyher, E.; Ehlert, S.; Hansen, A.; Neugebauer, H.; Spicher, S.; Bannwarth, C.; Grimme, S.
     A generally applicable atomic-charge dependent London dispersion correction
     J. Chem. Phys. 2019 150 , 154122
     doi.org/10.1063/1.5090222
  5. Caldeweyher, E.; Mewes, J.; Ehlert, S.; Grimme, S.
     Extension and evaluation of the D4 London-dispersion model for periodic systems
     Phys. Chem. Chem. Phys. 2020 22(16), 8499-8512
     doi.org/10.1039/D0CP00502A
  6. Helmich-Paris, B.; de Souza, B.; Neese, F.; Izsák, R.
     An improved chain of spheres for exchange algorithm
     J. Chem. Phys. 2021 155(10), 104109
     doi.org/10.1063/5.0058766
  7. Neese, F.
     The SHARK Integral Generation and Digestion System
     J. Comp. Chem. 2022 44(3), 381
     doi.org/10.1002/jcc.26942
  8. Wittmann, L.; Gordiy, I.; Friede, M.; Helmich-Paris, B.; Grimme, S.; Hansen, A.; Bursch, M.
     Extension of the D3 and D4 London Dispersion Corrections to the full Actinides Series
     Phys. Chem. Chem. Phys. 2024 26(32), 21379-21394
     doi.org/10.1039/D4CP01514B

List of suggested additional citations. These are papers that are important in the 'surrounding' of 
of this run, or papers that preceded the highly important papers. If you like your results we are grateful for a citation.

  1. Izsak, R.; Neese, F.
     An overlap fitted chain of spheres exchange method
     J. Chem. Phys. 2011 135 , 144105
     doi.org/10.1063/1.3646921
  2. Izsak, R.; Hansen, A.; Neese, F.
     The resolution of identity and chain of spheres approximations for the LPNO-CCSD singles Fock term
     Molec. Phys. 2012 110 , 2413-2417
     doi.org/10.1080/00268976.2012.687466
  3. Neese, F.
     The ORCA program system
     WIRES Comput. Molec. Sci. 2012 2(1), 73-78
     doi.org/10.1002/wcms.81
  4. Izsak, R.; Neese, F.; Klopper, W.
     Robust fitting techniques in the chain of spheres approximation to the Fock exchange: The role of the complementary space
     J. Chem. Phys. 2013 139 , 
     doi.org/10.1063/1.4819264
  5. Neese, F.
     Software update: the ORCA program system, version 4.0
     WIRES Comput. Molec. Sci. 2018 8(1), 1-6
     doi.org/10.1002/wcms.1327
  6. Neese, F.; Wennmohs, F.; Becker, U.; Riplinger, C.
     The ORCA quantum chemistry program package
     J. Chem. Phys. 2020 152(22), 224108
     doi.org/10.1063/5.0004608
  7. Neese, F.
     Software update: The ORCA program system—Version 5.0
     WIRES Comput. Molec. Sci. 2022 12(1), e1606
     doi.org/10.1002/wcms.1606

List of optional additional citations

  1. Neese, F.
     Approximate second-order SCF convergence for spin unrestricted wavefunctions
     Chem. Phys. Lett. 2000 325(1-3), 93-98
     doi.org/10.1016/s0009-2614(00)00662-x

Timings for individual modules:

Sum of individual times          ...      767.284 sec (=  12.788 min)
Startup calculation              ...       13.628 sec (=   0.227 min)   1.8 %
SCF iterations                   ...      751.774 sec (=  12.530 min)  98.0 %
Property calculations            ...        1.882 sec (=   0.031 min)   0.2 %
                             ****ORCA TERMINATED NORMALLY****
TOTAL RUN TIME: 0 days 0 hours 12 minutes 49 seconds 189 msec
