Loading openmpi/5.0.6/gcc-14.2.0
  Loading requirement: gcc/14.2.0

                                 *****************
                                 * O   R   C   A *
                                 *****************

                                            #,                                       
                                            ###                                      
                                            ####                                     
                                            #####                                    
                                            ######                                   
                                           ########,                                 
                                     ,,################,,,,,                         
                               ,,#################################,,                 
                          ,,##########################################,,             
                       ,#########################################, ''#####,          
                    ,#############################################,,   '####,        
                  ,##################################################,,,,####,       
                ,###########''''           ''''###############################       
              ,#####''   ,,,,##########,,,,          '''####'''          '####       
            ,##' ,,,,###########################,,,                        '##       
           ' ,,###''''                  '''############,,,                           
         ,,##''                                '''############,,,,        ,,,,,,###''
      ,#''                                            '''#######################'''  
     '                                                          ''''####''''         
             ,#######,   #######,   ,#######,      ##                                
            ,#'     '#,  ##    ##  ,#'     '#,    #''#        ,####,    ,#,          
            ##       ##  ##   ,#'  ##            #'  '#       #'       ,# #          
            ##       ##  #######   ##           ,######,      #####,      #          
            '#,     ,#'  ##    ##  '#,     ,#' ,#      #,     #,   #      #          
             '#######'   ##     ##  '#######'  #'      '#     '####' #    #          



                #########################################################
                #                        -***-                          #
                #          Department of theory and spectroscopy        #
                #                                                       #
                #                      Frank Neese                      #
                #                                                       #
                #     Directorship, Architecture, Infrastructure        #
                #                    SHARK, DRIVERS                     #
                #        Core code/Algorithms in most modules           #
                #                                                       #
                #        Max Planck Institute fuer Kohlenforschung      #
                #                Kaiser Wilhelm Platz 1                 #
                #                 D-45470 Muelheim/Ruhr                 #
                #                      Germany                          #
                #                                                       #
                #                  All rights reserved                  #
                #                        -***-                          #
                #########################################################


                         Program Version 6.1.0  -  RELEASE   -
                                (GIT: $679e74b$)
                          ($2025-06-10 18:02:51 +0200$)


 With contributions from (in alphabetic order):
[Max-Planck-Institut fuer Kohlenforschung]                               
  Daniel Aravena         : Magnetic Suceptibility                        
  Michael Atanasov       : Ab Initio Ligand Field Theory (pilot matlab implementation)
  Alexander A. Auer      : GIAO ZORA, VPT2 properties, NMR spectrum      
  Ute Becker             : All parallelization in ORCA, NUMFREQ, NUMCALC 
  Giovanni Bistoni       : ED, misc. LED, open-shell LED, HFLD           
  Dmytro Bykov           : pre 5.0 version of the SCF Hessian            
  Marcos Casanova-Páez   : Triplet and SCS-CIS(D). UHF-(DLPNO)-IP/EA/STEOM-CCSD. UHF-CVS-IP/STEOM-CCSD   
  Vijay G. Chilkuri      : MRCI spin determinant printing, contributions to CSF-ICE 
  Pauline Colinet        : FMM embedding                                 
  Dipayan Datta          : RHF DLPNO-CCSD density                        
  Achintya Kumar Dutta   : EOM-CC, STEOM-CC                              
  Nicolas Foglia         : Exact transition moments, OPA infrastructure, MCD improvements    
  Dmitry Ganyushin       : Spin-Orbit,Spin-Spin,Magnetic field MRCI      
  Miquel Garcia-Rates    : C-PCM and meta-GGA Hessian, CCSD/C-PCM, Gaussian charge scheme 
  Tiago L. C. Gouveia    : GS-ROHF, GS-ROCIS                             
  Yang Guo               : DLPNO-NEVPT2, F12-NEVPT2, CIM, IAO-localization        
  Andreas Hansen         : Spin unrestricted coupled pair/coupled cluster methods 
  Ingolf Harden          : AUTO-CI MPn and infrastructure                
  Benjamin Helmich-Paris : MC-RPA, TRAH-(SCF,CASSCF), AVAS, COSX integrals, SCF dyn. polar., MC-PDFT, srDFT 
  Lee Huntington         : MR-EOM, pCC                                   
  Robert Izsak           : Overlap fitted RIJCOSX, COSX-SCS-MP3, EOM     
  Riya Kayal             : Wick's Theorem for AUTO-CI, AUTO-CI UHF-CCSDT 
  Emily Kempfer          : AUTO-CI RHF CISDT and CCSDT, approximate NEVPT4
  Christian Kollmar      : KDIIS, OOCD, Brueckner-CCSD(T), CCSD density, CASPT2, CASPT2-K, improved NEVPT2 
  Axel Koslowski         : Symmetry handling                             
  Simone Kossmann        : meta-GGA functionals, TD-DFT gradient, OOMP2, (MP2 Hessian; deprecated post 5.0) 
  Lucas Lang             : DCDCAS, Hyperfine gauge corrections, ICE-SOC+SSC
  Marvin Lechner         : AUTO-CI (C++ implementation), FIC-MRCC        
  Spencer Leger          : CASSCF response                               
  Dagmar Lenk            : GEPOL surface, SMD, ORCA-2-JSON               
  Dimitrios Liakos       : Extrapolation schemes; Compound Job, Property file
  Dimitrios Manganas     : Further ROCIS development; embedding schemes. LFT, Crystal Embedding 
  Dimitrios Pantazis     : SARC Basis sets                               
  Anastasios Papadopoulos: AUTO-CI, single reference methods and gradients 
  Taras Petrenko         : pre 6.0 DFT Hessian and TD-DFT gradient,  ECA, NRVS 
  Petra Pikulova         : Analytic Raman intensities                    
  Peter Pinski           : DLPNO-MP2, DLPNO-MP2 Gradient                 
  Shashank Vittal Rao    : ES-AILFT, MagRelax                            
  Christoph Reimann      : Effective Core Potentials                     
  Marius Retegan         : Local ZFS, SOC                                
  Christoph Riplinger    : Optimizer, TS searches, QM/MM, DLPNO-CCSD(T), (RO)-DLPNO pert. Triples 
  Michael Roemelt        : Original ROCIS implementation, recursive CI coupling coefficients
  Masaaki Saitow         : Open-shell DLPNO-CCSD energy and density      
  Barbara Sandhoefer     : DKH picture change effects                    
  Yorick L. A. Schmerwitz: GMF and freeze-and-release deltaSCF, NEB S-IDPP initial path                    
  Kantharuban Sivalingam : CASSCF convergence/infrastructure, NEVPT2, NEVPT3, NEVPT4(SD), FIC-MRCI and CEPA variants
  Bernardo de Souza      : ESD, SOC TD-DFT                               
  Georgi L. Stoychev     : AutoAux, RI-MP2 NMR, DLPNO-MP2 response, X2C  
  Van Anh Tran           : RI-MP2 g-tensors                              
  Willem Van den Heuvel  : Paramagnetic NMR                              
  Zikuan Wang            : NOTCH, Electric field optimization            
  Frank Wennmohs         : Technical directorship and infrastructure     
  Hang Xu                : AUTO-CI-Response properties                   
                                                                         
[FACCTs GmbH]                                                            
  Markus Bursch, Nicolas Foglia, Miquel Garcia-Rates, Ingolf Harden, Hagen Neugebauer, Anastasios Papadopoulos, 
  Christoph Riplinger, Bernardo de Souza, Georgi L. Stoychev                                                    
                                                                 
  APM, various basis sets, CI-OPT, improved COSX, DLPNO-Multilevel,           
  DOCKER, DRACO, updates on ESD, Fragmentator, GOAT, IRC, LR-CPCM, L-BFGS, MBIS, meta-GGA TD-DFT gradient, ML-optimized integration grids, 
  MM, NACMEs, nearIR, NEB, NEB-TS, NL-DFT gradient (VV10), 2- and 3-layer-ONIOM, interface openCOSMO-RS, QMMM,   
  Crystal-QMMM, RESP, rigid body optimization, SF, symmetry and pop. for TD-DFT, various functionals, SOLVATOR                                   
                                                                         
[Other institutions]                                                     
  V. Asgeirsson          : NEB                                           
  Christoph Bannwarth    : sTDA-DFT, sTD-DFT, PBEh-3c, B97-3c, D3        
  Giovanni Bistoni       : ETS/NOCV, ADLD/ADEX, COVALED                  
  Martin Brehm           : Molecular dynamics                            
  Ronald Cardenas        : ETS/NOCV                                      
  Martina Colucci        : COVALED                                       
  Sebastian Ehlert       : rSCAN, r2SCAN, r2SCAN-3c, D4, dhf basis sets  
  Marvin Friede          : D4 for Fr, Ra, Ac-Lr                          
  Lars Goerigk           : TD-DFT with DH, B97 family of functionals     
  Stefan Grimme          : VdW corrections, initial TS optimization, DFT functionals, gCP, sTDA/sTD-DF 
  Waldemar Hujo          : DFT-NL                                        
  H. Jonsson             : NEB                                           
  Holger Kruse           : gCP                                           
  Marcel Mueller         : wB97X-3c, vDZP basis set                      
  Hagen Neugebauer       : wr2SCAN, Native XTB                           
  Gianluca Regni         : ADLD/ADEX                                     
  Tobias Risthaus        : pre 6.0 range-separated hybrid DFT and stability analysis
  Lukas Wittmann         : regularized MP2, r2SCAN double-hybrids, wr2SCAN        
                                                                         
We gratefully acknowledge several colleagues who have allowed us to      
interface, adapt or use parts of their codes:                            
  Ed Valeev, F. Pavosevic, A. Kumar             : LibInt (2-el integral package), F12 methods 
  Garnet Chan, S. Sharma, J. Yang, R. Olivares  : DMRG                   
  Ulf Ekstrom                                   : XCFun DFT Library      
  Mihaly Kallay                                 : mrcc  (arbitrary order and MRCC methods)
  Frank Weinhold                                : gennbo (NPA and NBO analysis)           
  Simon Mueller                                 : openCOSMO-RS                            
  Christopher J. Cramer and Donald G. Truhlar   : smd solvation model                     
  S Lehtola, MJT Oliveira, MAL Marques          : LibXC Library                           
  Liviu Ungur et al                             : ANISO software                          


 Your calculation uses the libint2 library for the computation of 2-el integrals
 For citations please refer to: http://libint.valeyev.net

 Your ORCA version has been built with support for libXC version: 7.0.0
 For citations please refer to: https://libxc.gitlab.io

 This ORCA versions uses:
   CBLAS   interface :  Fast vector & matrix operations
   LAPACKE interface :  Fast linear algebra routines
   SCALAPACK package :  Parallel linear algebra routines
   Shared memory     :  Shared parallel matrices
   BLAS/LAPACK       :  OpenBLAS 0.3.29  USE64BITINT DYNAMIC_ARCH NO_AFFINITY Cooperlake SINGLE_THREADED
        Core in use  :  Cooperlake
   Copyright (c) 2011-2014, The OpenBLAS Project


  ***********************************
  * Starting time: Wed May 13 14:54:46 2026
  * Host name:     node045.aire.lee.alces.network
  * Process ID:    972913
  * Working dir.:  /tmp/job.4919724
  ***********************************

NOTE: MaxCore=4000 MB was set to SCF,MP2,MDCI,CIPSI,MRCI,RASCI and CIS
      => If you want to overwrite this, your respective input block should be placed after the MaxCore statement


***************************************
The coordinates will be read from file: conf_023.xyz
***************************************


Your calculation utilizes the atom-pairwise dispersion correction
based on EEQ partial charges (D4)


================================================================================

cite the ECPs for C  [vDZP-ECP], F  [vDZP-ECP], O  [vDZP-ECP] as follows:
   B-Ne (ecp-2-mwb), Al-Ar (ecp-10-mwb), Ga-Kr (ecp-28-mwb), Y-Cd (ecp-28-mwb), In-Xe (ecp-46-mwb):
     A. Bergner, M. Dolg, W. Küchle, H. Stoll, and H. Preuß, Mol. Phys. 80, 1431 (1993)., T. Leininger, A. Berning, A. Nicklass, H. Stoll, H.-J. Werner, and H.-J.Flad, Chem. Phys. 217, 19 (1997).
   Na-Mg, K-Ca, Rb-Sr, Cs-Ba (CRENBL):
     L. Fernandez Pacios and P. A. Christiansen, J. Chem. Phys. 82, 2664 (1985)., M. M. Hurley, L. F. Pacios, P. A. Christiansen, R. B. Ross, and W. C. Ermler, J. Chem. Phys. 84, 6840 (1986)., L. A. LaJohn, P. A. Christiansen, R. B. Ross, T. Atashroo, and W. C. Ermler, J. Chem. Phys. 87, 2812 (1987)., R. B. Ross, J. M. Powers, T. Atashroo, W. C. Ermler, L. A. LaJohn, and P. A. Christiansen, J. Chem. Phys. 93, 6654 (1990). 
   Sc-Zn (ecp-10-mdf):
     M. Dolg, U. Wedig, H. Stoll, and H. Preuss, J. Chem. Phys. 86, 866 (1986). 
   Y-Cd (ecp-28-mwb), Hf-Hg (ecp-60-mwb):
     D. Andrae, U. Häußermann, M. Dolg, H. Stoll, and H. Preuß, Theor. Chim. Acta 77, 123 (1990). 
   La (ecp-46-mwb):
     M. Dolg, H. Stoll, and H. Preuss, J. Chem. Phys. 90, 1730 (1989)., M. Dolg, H. Stoll, and H. Preuss, Theor. Chim. Acta 85, 441 (1993).
   Ce-Lu (SBKJC-ecp):
     T. R. Cundari and W. J. Stevens, J. Chem. Phys. 98, 5555 (1993).
   Tl-Rn (ecp-78-mwb):
     W. Küchle, M. Dolg, H. Stoll, and H. Preuss, Mol. Phys. 74, 1245 (1991).

ECP parameters for C  [vDZP-ECP], F  [vDZP-ECP], O  [vDZP-ECP] have been obtained from:
MM, AH, SG, J. Chem. Phys. 158, 014103 (2023), 10.1063/5.0133026

----- Orbital basis set information -----
Your calculation utilizes the basis: vDZP
   Marcel Mueller, Andreas Hansen, Stefan Grimme 
   J. Chem. Phys. 158, 014103 (2023). DOI: 10.1063/5.0133026

----- AuxJ basis set information -----
Your calculation utilizes the auxiliary basis: def2/J
   H-Rn: F. Weigend, Phys. Chem. Chem. Phys. 8, 1057 (2006).
   Fr-Lr: K. Eichkorn, F. Weigend, O. Treutler, R. Ahlrichs; Theor. Chem. Acc. 97, 119 (1997).

================================================================================
                                        WARNINGS
                       Please study these warnings very carefully!
================================================================================

WARNING: Frozen-Core approximation turned on, but there are no core electrons.
  ===> : Turning off frozen-core approximation


================================================================================
                                       INPUT FILE
================================================================================
NAME = conf_023.inp
|  1> ! wb97x-3c mbis hirshfeld chelpg resp
|  2> %pal nprocs 4 end
|  3> %maxcore 4000
|  4> %method
|  5> 	   MBIS_LARGEPRINT TRUE
|  6> 	end
|  7> #conf_023
|  8> * xyzfile 0 1 conf_023.xyz
|  9> 
| 10>                          ****END OF INPUT****
================================================================================

                       ****************************
                       * Single Point Calculation *
                       ****************************

---------------------------------
CARTESIAN COORDINATES (ANGSTROEM)
---------------------------------
  C     10.244801    1.138855   -2.071430
  C      8.737516    0.947048   -1.949796
  C      8.324716    0.798228   -0.488124
  C      6.855208    0.616493   -0.236947
  C      6.413222    0.505668    1.079320
  C      5.074668    0.330567    1.355787
  F      4.699573    0.247416    2.645418
  C      4.096444    0.267048    0.361146
  C      2.669773    0.086039    0.667901
  C      1.708459    0.857622    0.019519
  C      0.372652    0.673422    0.312445
  F     -0.523153    1.453663   -0.308340
  C     -0.065043   -0.261929    1.249807
  C     -1.505533   -0.438409    1.600466
  O     -1.916360   -0.613498    2.712136
  O     -2.252997   -0.350851    0.485913
  C     -3.627138   -0.434695    0.483507
  C     -4.370725   -1.130953    1.424923
  C     -5.745178   -1.173717    1.277875
  F     -6.447430   -1.839587    2.212793
  C     -6.416293   -0.546366    0.230416
  C     -7.880192   -0.595936    0.095945
  C     -8.581778   -1.778304    0.315003
  C     -9.955537   -1.803840    0.169699
  F    -10.616763   -2.950895    0.371498
  C    -10.664816   -0.663010   -0.190740
  F    -11.995415   -0.695453   -0.330219
  C     -9.953617    0.513137   -0.403472
  F    -10.611908    1.628874   -0.748394
  C     -8.580038    0.552445   -0.267127
  C     -5.635076    0.145652   -0.696022
  C     -4.263139    0.200064   -0.580758
  C      0.923032   -1.013898    1.886754
  F      0.562063   -1.950779    2.767909
  C      2.266245   -0.858581    1.607874
  C      4.572872    0.387209   -0.942843
  F      3.699688    0.311975   -1.965535
  C      5.910024    0.551357   -1.251022
  H     10.531640    1.243102   -3.114674
  H     10.562090    2.032544   -1.538664
  H     10.774791    0.285223   -1.654750
  H      8.230632    1.808761   -2.388273
  H      8.445182    0.055071   -2.507070
  H      8.656686    1.681210    0.066146
  H      8.850858   -0.058462   -0.056069
  H      7.111127    0.555901    1.900549
  H      1.985626    1.606350   -0.704839
  H     -3.913387   -1.625058    2.266121
  H     -8.075984   -2.689124    0.590902
  H     -8.069386    1.488756   -0.424535
  H     -6.118694    0.628987   -1.530300
  H     -3.661129    0.730092   -1.300939
  H      2.981233   -1.479890    2.122440
  H      6.185888    0.624456   -2.289369

----------------------------
CARTESIAN COORDINATES (A.U.)
----------------------------
  NO LB      ZA    FRAG     MASS         X           Y           Z
   0 C     4.0000*   0    12.011   19.359868    2.152124   -3.914436
   1 C     4.0000*   0    12.011   16.511512    1.789661   -3.684580
   2 C     4.0000*   0    12.011   15.731433    1.508432   -0.922421
   3 C     4.0000*   0    12.011   12.954465    1.165002   -0.447764
   4 C     4.0000*   0    12.011   12.119233    0.955574    2.039619
   5 C     4.0000*   0    12.011    9.589732    0.624682    2.562066
   6 F     7.0000*   0    18.998    8.880906    0.467549    4.999116
   7 C     4.0000*   0    12.011    7.741157    0.504647    0.682466
   8 C     4.0000*   0    12.011    5.045139    0.162589    1.262150
   9 C     4.0000*   0    12.011    3.228520    1.620671    0.036885
  10 C     4.0000*   0    12.011    0.704210    1.272584    0.590435
  11 F     7.0000*   0    18.998   -0.988616    2.747025   -0.582678
  12 C     4.0000*   0    12.011   -0.122913   -0.494973    2.361793
  13 C     4.0000*   0    12.011   -2.845045   -0.828473    3.024442
  14 O     6.0000*   0    15.999   -3.621395   -1.159343    5.125195
  15 O     6.0000*   0    15.999   -4.257547   -0.663011    0.918242
  16 C     4.0000*   0    12.011   -6.854298   -0.821454    0.913697
  17 C     4.0000*   0    12.011   -8.259474   -2.137191    2.692714
  18 C     4.0000*   0    12.011  -10.856812   -2.218004    2.414834
  19 F     7.0000*   0    18.998  -12.183877   -3.476315    4.181572
  20 C     4.0000*   0    12.011  -12.125036   -1.032483    0.435423
  21 C     4.0000*   0    12.011  -14.891405   -1.126155    0.181309
  22 C     4.0000*   0    12.011  -16.217210   -3.360507    0.595270
  23 C     4.0000*   0    12.011  -18.813238   -3.408764    0.320685
  24 F     7.0000*   0    18.998  -20.062774   -5.576384    0.702030
  25 C     4.0000*   0    12.011  -20.153582   -1.252908   -0.360446
  26 F     7.0000*   0    18.998  -22.668049   -1.314215   -0.624023
  27 C     4.0000*   0    12.011  -18.809610    0.969688   -0.762452
  28 F     7.0000*   0    18.998  -20.053599    3.078126   -1.414260
  29 C     4.0000*   0    12.011  -16.213922    1.043970   -0.504797
  30 C     4.0000*   0    12.011  -10.648751    0.275242   -1.315291
  31 C     4.0000*   0    12.011   -8.056166    0.378067   -1.097474
  32 C     4.0000*   0    12.011    1.744278   -1.915990    3.565447
  33 F     7.0000*   0    18.998    1.062145   -3.686438    5.230591
  34 C     4.0000*   0    12.011    4.282583   -1.622483    3.038441
  35 C     4.0000*   0    12.011    8.641476    0.731718   -1.781716
  36 F     7.0000*   0    18.998    6.991397    0.589547   -3.714324
  37 C     4.0000*   0    12.011   11.168326    1.041914   -2.364088
  38 H     1.0000    0     1.008   19.901916    2.349122   -5.885880
  39 H     1.0000    0     1.008   19.959458    3.840952   -2.907653
  40 H     1.0000    0     1.008   20.361405    0.538994   -3.127025
  41 H     1.0000    0     1.008   15.553641    3.418062   -4.513182
  42 H     1.0000    0     1.008   15.959081    0.104069   -4.737676
  43 H     1.0000    0     1.008   16.358766    3.177027    0.124998
  44 H     1.0000    0     1.008   16.725698   -0.110478   -0.105955
  45 H     1.0000    0     1.008   13.438083    1.050500    3.591518
  46 H     1.0000    0     1.008    3.752290    3.035561   -1.331953
  47 H     1.0000    0     1.008   -7.395229   -3.070915    4.282348
  48 H     1.0000    0     1.008  -15.261398   -5.081708    1.116643
  49 H     1.0000    0     1.008  -15.248929    2.813341   -0.802256
  50 H     1.0000    0     1.008  -11.562657    1.188613   -2.891848
  51 H     1.0000    0     1.008   -6.918532    1.379674   -2.458419
  52 H     1.0000    0     1.008    5.633714   -2.796586    4.010830
  53 H     1.0000    0     1.008   11.689634    1.180051   -4.326280
* core charge reduced due to ECP

--------------------------------
INTERNAL COORDINATES (ANGSTROEM)
--------------------------------
 C      0   0   0     0.000000000000     0.00000000     0.00000000
 C      1   0   0     1.524300461004     0.00000000     0.00000000
 C      2   1   0     1.526117735812   110.86508192     0.00000000
 C      3   2   1     1.501856104283   115.89013389   179.40345819
 C      4   3   2     1.392907266206   118.56450468   181.44116794
 C      5   4   3     1.377977375516   120.52653607   180.35457944
 F      6   5   4     1.345644379253   118.09311524   180.87928910
 C      6   5   4     1.396520005502   122.90963420   359.38628156
 C      8   6   5     1.470460366494   122.45470437   180.28702552
 C      9   8   6     1.392790297351   120.28787779   135.44248635
 C     10   9   8     1.379897129386   119.69486302   179.71137200
 F     11  10   9     1.340379113242   118.09585165   178.54140643
 C     11  10   9     1.394670367405   122.41219491     0.34824282
 C     13  11  10     1.493023180491   122.67813196   178.16026315
 O     14  13  11     1.198017886255   124.47652783   221.00104096
 O     14  13  11     1.344840732057   109.50576735    40.14112785
 C     16  14  13     1.376699242558   123.52160478   181.87015184
 C     17  16  14     1.387068603448   124.36577206   332.23765277
 C     18  17  16     1.382957513478   118.43388202   182.27602830
 F     19  18  17     1.345589436852   117.39404495   180.87386206
 C     19  18  17     1.393246417290   123.00719871   359.79675329
 C     21  19  18     1.470898015707   122.20546138   180.40848906
 C     22  21  19     1.392193894667   121.04965970   317.31286261
 C     23  22  21     1.381657608475   120.01394415   180.64722709
 F     24  23  22     1.339282577760   119.39827669   179.39095596
 C     24  23  22     1.390858531144   121.27432881   359.81368808
 F     26  24  23     1.338282499867   120.94099647   179.96885250
 C     26  24  23     1.390820474212   118.19676935     0.00000000
 F     28  26  24     1.340592002838   119.47656267   180.17492293
 C     28  26  24     1.380888713899   121.17242450     0.24379685
 C     21  19  18     1.395519910515   116.91941664     0.12794673
 C     31  21  19     1.377845208260   121.42957346     0.24493773
 C     13  11  10     1.395511350568   116.48369018     0.00000000
 F     33  13  11     1.335844469156   119.18692335   181.80289859
 C     33  13  11     1.380622307386   122.41433259   359.55318841
 C      8   6   5     1.393488298024   115.02878853     0.31887090
 F     36   8   6     1.346851933461   118.95212815   178.78135151
 C     36   8   6     1.381988842490   123.34778404     0.28968010
 H      1   2   3     1.086968843177   110.46277125   179.94306716
 H      1   2   3     1.087746680989   110.65490873   299.88972984
 H      1   2   3     1.087749741288   110.63906251    60.00445940
 H      2   1   3     1.091669413353   109.13280921   120.85888278
 H      2   1   3     1.091621173483   109.08023843   239.11866497
 H      3   2   1     1.094110285023   108.93120682    57.36148096
 H      3   2   1     1.094265266134   108.93224921   301.43674153
 H      5   4   3     1.078894295444   120.68588930     0.39812549
 H     10   9   8     1.078011826697   121.33989263   359.18908401
 H     18  17  16     1.077457007555   122.17662045     3.00806626
 H     23  22  21     1.077748001685   121.43419398     0.14304105
 H     30  28  26     1.078063582632   118.78173850   181.04546117
 H     31  21  19     1.078665490172   118.99084456   178.91973851
 H     32  31  21     1.077963850169   121.30561605   179.61717535
 H     35  33  13     1.077965512377   118.94960300   180.92820054
 H     38  36   8     1.076851602324   118.09603263   179.33492634

---------------------------
INTERNAL COORDINATES (A.U.)
---------------------------
 C      0   0   0     0.000000000000     0.00000000     0.00000000
 C      1   0   0     2.880510417108     0.00000000     0.00000000
 C      2   1   0     2.883944568805   110.86508192     0.00000000
 C      3   2   1     2.838096729652   115.89013389   179.40345819
 C      4   3   2     2.632213263078   118.56450468   181.44116794
 C      5   4   3     2.603999858464   120.52653607   180.35457944
 F      6   5   4     2.542899350440   118.09311524   180.87928910
 C      6   5   4     2.639040350941   122.90963420   359.38628156
 C      8   6   5     2.778767383459   122.45470437   180.28702552
 C      9   8   6     2.631992223977   120.28787779   135.44248635
 C     10   9   8     2.607627667523   119.69486302   179.71137200
 F     11  10   9     2.532949439657   118.09585165   178.54140643
 C     11  10   9     2.635545041491   122.41219491     0.34824282
 C     13  11  10     2.821404922724   122.67813196   178.16026315
 O     14  13  11     2.263925708562   124.47652783   221.00104096
 O     14  13  11     2.541380677330   109.50576735    40.14112785
 C     16  14  13     2.601584537211   123.52160478   181.87015184
 C     17  16  14     2.621179789477   124.36577206   332.23765277
 C     18  17  16     2.613410955323   118.43388202   182.27602830
 F     19  18  17     2.542795524348   117.39404495   180.87386206
 C     19  18  17     2.632854165745   123.00719871   359.79675329
 C     21  19  18     2.779594420615   122.20546138   180.40848906
 C     22  21  19     2.630865186237   121.04965970   317.31286261
 C     23  22  21     2.610954490865   120.01394415   180.64722709
 F     24  23  22     2.530877287898   119.39827669   179.39095596
 C     24  23  22     2.628341714891   121.27432881   359.81368808
 F     26  24  23     2.528987414569   120.94099647   179.96885250
 C     26  24  23     2.628269797711   118.19676935     0.00000000
 F     28  26  24     2.533351742689   119.47656267   180.17492293
 C     28  26  24     2.609501490692   121.17242450     0.24379685
 C     21  19  18     2.637150445308   116.91941664     0.12794673
 C     31  21  19     2.603750098547   121.42957346     0.24493773
 C     13  11  10     2.637134269352   116.48369018     0.00000000
 F     33  13  11     2.524380204217   119.18692335   181.80289859
 C     33  13  11     2.608998055342   122.41433259   359.55318841
 C      8   6   5     2.633311254089   115.02878853     0.31887090
 F     36   8   6     2.545181297184   118.95212815   178.78135151
 C     36   8   6     2.611580432441   123.34778404     0.28968010
 H      1   2   3     2.054073429709   110.46277125   179.94306716
 H      1   2   3     2.055543330151   110.65490873   299.88972984
 H      1   2   3     2.055549113279   110.63906251    60.00445940
 H      2   1   3     2.062956220016   109.13280921   120.85888278
 H      2   1   3     2.062865059873   109.08023843   239.11866497
 H      3   2   1     2.067568799000   108.93120682    57.36148096
 H      3   2   1     2.067861670855   108.93224921   301.43674153
 H      5   4   3     2.038814745840   120.68588930     0.39812549
 H     10   9   8     2.037147121586   121.33989263   359.18908401
 H     18  17  16     2.036098665353   122.17662045     3.00806626
 H     23  22  21     2.036648564565   121.43419398     0.14304105
 H     30  28  26     2.037244926129   118.78173850   181.04546117
 H     31  21  19     2.038382366536   118.99084456   178.91973851
 H     32  31  21     2.037056459086   121.30561605   179.61717535
 H     35  33  13     2.037059600204   118.94960300   180.92820054
 H     38  36   8     2.034954615267   118.09603263   179.33492634

---------------------
BASIS SET INFORMATION
---------------------
There are 4 groups of distinct atoms

 Group   1 Type C   : 6s6p2d contracted to 2s2p1d pattern {42/42/2}
 Group   2 Type F   : 6s6p2d contracted to 2s2p1d pattern {42/42/2}
 Group   3 Type O   : 6s6p2d contracted to 2s2p1d pattern {42/42/2}
 Group   4 Type H   : 8s2p contracted to 2s1p pattern {53/2}

Atom   0C    basis set group =>   1
Atom   1C    basis set group =>   1
Atom   2C    basis set group =>   1
Atom   3C    basis set group =>   1
Atom   4C    basis set group =>   1
Atom   5C    basis set group =>   1
Atom   6F    basis set group =>   2
Atom   7C    basis set group =>   1
Atom   8C    basis set group =>   1
Atom   9C    basis set group =>   1
Atom  10C    basis set group =>   1
Atom  11F    basis set group =>   2
Atom  12C    basis set group =>   1
Atom  13C    basis set group =>   1
Atom  14O    basis set group =>   3
Atom  15O    basis set group =>   3
Atom  16C    basis set group =>   1
Atom  17C    basis set group =>   1
Atom  18C    basis set group =>   1
Atom  19F    basis set group =>   2
Atom  20C    basis set group =>   1
Atom  21C    basis set group =>   1
Atom  22C    basis set group =>   1
Atom  23C    basis set group =>   1
Atom  24F    basis set group =>   2
Atom  25C    basis set group =>   1
Atom  26F    basis set group =>   2
Atom  27C    basis set group =>   1
Atom  28F    basis set group =>   2
Atom  29C    basis set group =>   1
Atom  30C    basis set group =>   1
Atom  31C    basis set group =>   1
Atom  32C    basis set group =>   1
Atom  33F    basis set group =>   2
Atom  34C    basis set group =>   1
Atom  35C    basis set group =>   1
Atom  36F    basis set group =>   2
Atom  37C    basis set group =>   1
Atom  38H    basis set group =>   4
Atom  39H    basis set group =>   4
Atom  40H    basis set group =>   4
Atom  41H    basis set group =>   4
Atom  42H    basis set group =>   4
Atom  43H    basis set group =>   4
Atom  44H    basis set group =>   4
Atom  45H    basis set group =>   4
Atom  46H    basis set group =>   4
Atom  47H    basis set group =>   4
Atom  48H    basis set group =>   4
Atom  49H    basis set group =>   4
Atom  50H    basis set group =>   4
Atom  51H    basis set group =>   4
Atom  52H    basis set group =>   4
Atom  53H    basis set group =>   4
---------------------------------
AUXILIARY/J BASIS SET INFORMATION
---------------------------------
There are 4 groups of distinct atoms

 Group   1 Type C   : 12s5p4d2f1g contracted to 6s4p3d1f1g pattern {711111/2111/211/2/1}
 Group   2 Type F   : 12s5p4d2f1g contracted to 6s4p3d1f1g pattern {711111/2111/211/2/1}
 Group   3 Type O   : 12s5p4d2f1g contracted to 6s4p3d1f1g pattern {711111/2111/211/2/1}
 Group   4 Type H   : 5s2p1d contracted to 3s1p1d pattern {311/2/1}

Atom   0C    basis set group =>   1
Atom   1C    basis set group =>   1
Atom   2C    basis set group =>   1
Atom   3C    basis set group =>   1
Atom   4C    basis set group =>   1
Atom   5C    basis set group =>   1
Atom   6F    basis set group =>   2
Atom   7C    basis set group =>   1
Atom   8C    basis set group =>   1
Atom   9C    basis set group =>   1
Atom  10C    basis set group =>   1
Atom  11F    basis set group =>   2
Atom  12C    basis set group =>   1
Atom  13C    basis set group =>   1
Atom  14O    basis set group =>   3
Atom  15O    basis set group =>   3
Atom  16C    basis set group =>   1
Atom  17C    basis set group =>   1
Atom  18C    basis set group =>   1
Atom  19F    basis set group =>   2
Atom  20C    basis set group =>   1
Atom  21C    basis set group =>   1
Atom  22C    basis set group =>   1
Atom  23C    basis set group =>   1
Atom  24F    basis set group =>   2
Atom  25C    basis set group =>   1
Atom  26F    basis set group =>   2
Atom  27C    basis set group =>   1
Atom  28F    basis set group =>   2
Atom  29C    basis set group =>   1
Atom  30C    basis set group =>   1
Atom  31C    basis set group =>   1
Atom  32C    basis set group =>   1
Atom  33F    basis set group =>   2
Atom  34C    basis set group =>   1
Atom  35C    basis set group =>   1
Atom  36F    basis set group =>   2
Atom  37C    basis set group =>   1
Atom  38H    basis set group =>   4
Atom  39H    basis set group =>   4
Atom  40H    basis set group =>   4
Atom  41H    basis set group =>   4
Atom  42H    basis set group =>   4
Atom  43H    basis set group =>   4
Atom  44H    basis set group =>   4
Atom  45H    basis set group =>   4
Atom  46H    basis set group =>   4
Atom  47H    basis set group =>   4
Atom  48H    basis set group =>   4
Atom  49H    basis set group =>   4
Atom  50H    basis set group =>   4
Atom  51H    basis set group =>   4
Atom  52H    basis set group =>   4
Atom  53H    basis set group =>   4
-------------------------
ECP PARAMETER INFORMATION
-------------------------

 Group 1, Type C  ECP vDZP-ECP (replacing 2 core electrons, lmax=3)
 Group 2, Type F  ECP vDZP-ECP (replacing 2 core electrons, lmax=3)
 Group 3, Type O  ECP vDZP-ECP (replacing 2 core electrons, lmax=3)

Atom   0C    ECP group =>   1
Atom   1C    ECP group =>   1
Atom   2C    ECP group =>   1
Atom   3C    ECP group =>   1
Atom   4C    ECP group =>   1
Atom   5C    ECP group =>   1
Atom   6F    ECP group =>   2
Atom   7C    ECP group =>   1
Atom   8C    ECP group =>   1
Atom   9C    ECP group =>   1
Atom  10C    ECP group =>   1
Atom  11F    ECP group =>   2
Atom  12C    ECP group =>   1
Atom  13C    ECP group =>   1
Atom  14O    ECP group =>   3
Atom  15O    ECP group =>   3
Atom  16C    ECP group =>   1
Atom  17C    ECP group =>   1
Atom  18C    ECP group =>   1
Atom  19F    ECP group =>   2
Atom  20C    ECP group =>   1
Atom  21C    ECP group =>   1
Atom  22C    ECP group =>   1
Atom  23C    ECP group =>   1
Atom  24F    ECP group =>   2
Atom  25C    ECP group =>   1
Atom  26F    ECP group =>   2
Atom  27C    ECP group =>   1
Atom  28F    ECP group =>   2
Atom  29C    ECP group =>   1
Atom  30C    ECP group =>   1
Atom  31C    ECP group =>   1
Atom  32C    ECP group =>   1
Atom  33F    ECP group =>   2
Atom  34C    ECP group =>   1
Atom  35C    ECP group =>   1
Atom  36F    ECP group =>   2
Atom  37C    ECP group =>   1



           ************************************************************
           *        Program running with 4 parallel MPI-processes     *
           *              working on a common directory               *
           ************************************************************
------------------------------------------------------------------------------
                             ORCA STARTUP CALCULATIONS
                           -- RI-GTO INTEGRALS CHOSEN --
------------------------------------------------------------------------------
------------------------------------------------------------------------------
                   ___                                                        
                  /   \      - P O W E R E D   B Y -                         
                 /     \                                                     
                 |  |  |   _    _      __       _____    __    __             
                 |  |  |  | |  | |    /  \     |  _  \  |  |  /  |          
                  \  \/   | |  | |   /    \    | | | |  |  | /  /          
                 / \  \   | |__| |  /  /\  \   | |_| |  |  |/  /          
                |  |  |   |  __  | /  /__\  \  |    /   |      \           
                |  |  |   | |  | | |   __   |  |    \   |  |\   \          
                \     /   | |  | | |  |  |  |  | |\  \  |  | \   \       
                 \___/    |_|  |_| |__|  |__|  |_| \__\ |__|  \__/        
                                                                              
                      - O R C A' S   B I G   F R I E N D -                    
                                      &                                       
                       - I N T E G R A L  F E E D E R -                       
                                                                              
 v1 FN, 2020, v2 2021, v3 2022-2024                                           
------------------------------------------------------------------------------


----------------------
SHARK INTEGRAL PACKAGE
----------------------

Number of atoms                             ...     54
Number of basis functions                   ...    574
Number of shells                            ...    238
Maximum angular momentum                    ...      2
Integral batch strategy                     ... SHARK/LIBINT Hybrid
RI-J (if used) integral strategy            ... SPLIT-RIJ (Revised 2003 algorithm where possible)
Printlevel                                  ...      1
Contraction scheme used                     ... SEGMENTED contraction
Prescreening option                         ... SCHWARTZ
   Thresh                                   ... 1.000e-10
   Tcut                                     ... 1.000e-11
   Tpresel                                  ... 1.000e-11 
Coulomb Range Separation                    ... NOT USED
Exchange Range Separation                   ... Long Range
   Mu parameter                             ... 3.000e-01
   Scaling (regular/separated)              ... 1.670e-01 8.330e-01
Robust (split-)RI terms used:
  metric    (central integrals)             ... YES
  density   (r.h.s.  integrals)             ... YES
  potential (l.h.s.  integrals)             ... YES
Multipole approximations                    ... NOT USED
Finite Nucleus Model                        ... NOT USED
CABS basis                                  ... NOT available
Auxiliary Coulomb fitting basis             ... AVAILABLE
   # of basis functions in Aux-J            ...   2038
   # of shells in Aux-J                     ...    650
   Maximum angular momentum in Aux-J        ...      4
Auxiliary J/K fitting basis                 ... NOT available
Auxiliary Correlation fitting basis         ... NOT available
Auxiliary 'external' fitting basis          ... NOT available

done (  0.0 sec) Dimension = 238
   => SHARK Basis and OBASIS are compatible. Storing Pre-screening
Shell pair information
Shell pair cut-off parameter TPreSel        ...   1.0e-11
Total number of shell pairs                 ...     28441
Shell pairs after pre-screening             ...     18262
Total number of primitive shell pairs       ...    240572
Primitive shell pairs kept                  ...    100966
          la=0 lb=0:   3863 shell pairs
          la=1 lb=0:   6500 shell pairs
          la=1 lb=1:   2836 shell pairs
          la=2 lb=0:   2525 shell pairs
          la=2 lb=1:   2123 shell pairs
          la=2 lb=2:    415 shell pairs

Checking whether 4 symmetric matrices of dimension 574 fit in memory
:Max Core in MB      =   4000.00
 MB in use           =     36.61
 MB left             =   3963.39
 MB needed           =      5.04
 Data fit in memory  = YES
done (  0.3 sec)
Calculating Nuclear repulsion               ... done (  0.0 sec) ENN=   1922.509847096246 Eh

Diagonalization of the overlap matrix:
Smallest eigenvalue                        ... 2.249e-04
Time for diagonalization                   ...    0.058 sec
Threshold for overlap eigenvalues          ... 1.000e-07
Number of eigenvalues below threshold      ... 0
Time for construction of square roots      ...    0.034 sec
Total time needed                          ...    0.105 sec

-------------------
DFT GRID GENERATION
-------------------

General Integration Accuracy     IntAcc      ... 4.388
Radial Grid Type                 RadialGrid  ... OptM3 with GC (2021)
Angular Grid (max. ang.)         AngularGrid ... 4 (Lebedev-302)
Angular grid pruning method      GridPruning ... 4 (adaptive)
Weight generation scheme         WeightScheme... mBecke (2022)
Basis function cutoff            BFCut       ... 1.0000e-10
Integration weight cutoff        WCut        ... 1.0000e-14
Partially contracted basis set               ... off
Rotationally invariant grid construction     ... off
Angular grids for H and He will be reduced by one unit

Total number of grid points                  ...   278847
Total number of batches                      ...     4382
Average number of points per batch           ...       63
Average number of grid points per atom       ...     5164

--------------------
COSX GRID GENERATION
--------------------

GRIDX 1
-------
General Integration Accuracy     IntAcc      ... 3.816
Radial Grid Type                 RadialGrid  ... OptM3 with GC (2021)
Angular Grid (max. ang.)         AngularGrid ... 1 (Lebedev-50)
Angular grid pruning method      GridPruning ... 4 (adaptive)
Weight generation scheme         WeightScheme... mBecke (2022)
Basis function cutoff            BFCut       ... 1.0000e-10
Integration weight cutoff        WCut        ... 1.0000e-14
Partially contracted basis set               ... on
Rotationally invariant grid construction     ... off
Angular grids for H and He will be reduced by one unit

Total number of grid points                  ...    35301
Total number of batches                      ...      305
Average number of points per batch           ...      115
Average number of grid points per atom       ...      654
UseSFitting                                  ... on

GRIDX 2
-------
General Integration Accuracy     IntAcc      ... 4.020
Radial Grid Type                 RadialGrid  ... OptM3 with GC (2021)
Angular Grid (max. ang.)         AngularGrid ... 2 (Lebedev-110)
Angular grid pruning method      GridPruning ... 4 (adaptive)
Weight generation scheme         WeightScheme... mBecke (2022)
Basis function cutoff            BFCut       ... 1.0000e-10
Integration weight cutoff        WCut        ... 1.0000e-14
Partially contracted basis set               ... on
Rotationally invariant grid construction     ... off
Angular grids for H and He will be reduced by one unit

Total number of grid points                  ...    79100
Total number of batches                      ...      642
Average number of points per batch           ...      123
Average number of grid points per atom       ...     1465
UseSFitting                                  ... on

GRIDX 3
-------
General Integration Accuracy     IntAcc      ... 4.338
Radial Grid Type                 RadialGrid  ... OptM3 with GC (2021)
Angular Grid (max. ang.)         AngularGrid ... 3 (Lebedev-194)
Angular grid pruning method      GridPruning ... 4 (adaptive)
Weight generation scheme         WeightScheme... mBecke (2022)
Basis function cutoff            BFCut       ... 1.0000e-10
Integration weight cutoff        WCut        ... 1.0000e-14
Partially contracted basis set               ... on
Rotationally invariant grid construction     ... off
Angular grids for H and He will be reduced by one unit

Total number of grid points                  ...   173695
Total number of batches                      ...     1387
Average number of points per batch           ...      125
Average number of grid points per atom       ...     3217
UseSFitting                                  ... on
Grids setup in   8.8 sec
Initializing property integral containers    ... done (  0.0 sec)

SHARK setup successfully completed in  11.7 seconds

Maximum memory used throughout the entire STARTUP-calculation: 100.8 MB


           ************************************************************
           *        Program running with 4 parallel MPI-processes     *
           *              working on a common directory               *
           ************************************************************
-------------------------------------------------------------------------------
                                 ORCA GUESS
                   Start orbitals & Density for SCF / CASSCF
-------------------------------------------------------------------------------

------------
SCF SETTINGS
------------
Hamiltonian:
 Density Functional     Method          .... DFT(GTOs)
 Exchange Functional    Exchange        .... WB97X-V
 Correlation Functional Correlation     .... WB97X-V
 Gradients option       PostSCFGGA      .... off
 Hybrid DFT is turned on
   Fraction HF Exchange ScalHFX         ....  0.167000
   Scaling of DF-GGA-X  ScalDFX         ....  0.000000
   Scaling of DF-GGA-C  ScalDFC         ....  1.000000
   Scaling of DF-LDA-C  ScalLDAC        ....  1.000000
   Perturbative correction              ....  0.000000
 Long-range corrected/Screened/Range-Separated Hybrid DFT is turned on
   Amount of maximum screened exact exchange              ....  0.833000
   Range separation parameter mu (erf(mu*r12)/r12)        ....  0.300000
   NL short-range parameter             ....  6.000000
   NL long-range parameter              ....  0.010000
 RI-approximation to the Coulomb term is turned on
   Number of AuxJ basis functions       .... 2038
   RIJ-COSX (HFX calculated with COS-X)).... on


General Settings:
 Integral files         IntName         .... conf_023
 Hartree-Fock type      HFTyp           .... RHF
 Total Charge           Charge          ....    0
 Multiplicity           Mult            ....    1
 Number of Electrons    NEL             ....  196
 Basis Dimension        Dim             ....  574
 Nuclear Repulsion      ENuc            ....   1922.5098470962 Eh

Convergence Acceleration:
 AO-DIIS                CNVDIIS         .... on
   Start iteration      DIISMaxIt       ....    12
   Startup error        DIISStart       ....  0.200000
   # of expansion vecs  DIISMaxEq       ....     5
   Bias factor          DIISBfac        ....   1.050
   Max. coefficient     DIISMaxC        ....  10.000
 MO-DIIS                CNVKDIIS        .... off
 Trust-Rad. Augm. Hess. CNVTRAH         .... auto
   Auto Start mean grad. ratio tolernc. ....  1.125000
   Auto Start start iteration           ....    50
   Auto Start num. interpolation iter.  ....    10
   Max. Number of Micro iterations      ....    24
   Max. Number of Macro iterations      .... Maxiter - #DIIS iter
   Number of Davidson start vectors     ....     2
   Converg. threshold    (grad. norm)   ....   5.000e-05
   Grad. Scal. Fac. for Micro threshold ....   0.100
   Minimum threshold for Micro iter.    ....   1.000e-02
   NR start threshold (gradient norm)   ....   1.000e-04
   Initial trust radius                 ....   0.400
   Minimum AH scaling param. (alpha)    ....   1.000
   Maximum AH scaling param. (alpha)    .... 1000.000
   Quad. conv. algorithm                .... NR
   White noise on init. David. guess    .... on
   Maximum white noise                  ....   0.010
   Pseudo random numbers                .... off
   Inactive MOs                         .... canonical
   Orbital update algorithm             .... Taylor
   Preconditioner                       .... Diag
   Full preconditioner red. dimension   ....   250
 SOSCF                 CNVSOSCF           .... on
   Start iteration     SOSCFMaxIt         ....   150
   Startup grad/error  SOSCFStart         ....  0.003300
   Hessian update      SOSCFHessUp        .... L-BFGS
   Autom. constraints  SOSCFAutoConstrain .... off
 Level Shifting         CNVShift        .... on
   Level shift para.    LevelShift      ....    0.2500
   Turn off err/grad.   ShiftErr        ....    0.0010
 Zerner damping         CNVZerner       .... off
 Static damping         CNVDamp         .... on
   Fraction old density DampFac         ....    0.7000
   Max. Damping (<1)    DampMax         ....    0.9800
   Min. Damping (>=0)   DampMin         ....    0.0000
   Turn off err/grad.   DampErr         ....    0.1000

SCF Procedure:
 Maximum # iterations   MaxIter         ....   125
 SCF integral mode      SCFMode         .... Direct
   Integral package                     .... SHARK and LIBINT hybrid scheme
 Reset frequency        DirectResetFreq ....    20
 Integral Threshold     Thresh          ....  1.000e-10 Eh
 Primitive CutOff       TCut            ....  1.000e-11 Eh

Convergence Tolerance:
 Convergence Check Mode ConvCheckMode   .... Total+1el-Energy
 Convergence forced     ConvForced      .... 0
 Energy Change          TolE            ....  1.000e-06 Eh
 1-El. energy change                    ....  1.000e-03 Eh
 Orbital Gradient       TolG            ....  5.000e-05
 Orbital Rotation angle TolX            ....  5.000e-05
 DIIS Error             TolErr          ....  1.000e-06

------------------------------
INITIAL GUESS: MODEL POTENTIAL
------------------------------
Loading Hartree-Fock densities                     ... done
Atomic calculation to generate a density for atom 0 (C  with ECP)
  Multiplicity assumed   :    1
  Atomic configuration   : 1s2 2s2 2p2 
  Number of open shells  : 1
  Command: /opt/apps/pkg/applications/orca/orca_6_1_0_linux_x86-64_shared_openmpi418/orca conf_023_atom6.inp "" > conf_023_atom6.out
Returned from the atomic calculation with res=0
Atomic calculation to generate a density for atom 6 (F  with ECP)
  Multiplicity assumed   :    2
  Atomic configuration   : 1s2 2s2 2p5 
  Number of open shells  : 1
  Command: /opt/apps/pkg/applications/orca/orca_6_1_0_linux_x86-64_shared_openmpi418/orca conf_023_atom9.inp "" > conf_023_atom9.out
Returned from the atomic calculation with res=0
Atomic calculation to generate a density for atom 14 (O  with ECP)
  Multiplicity assumed   :    3
  Atomic configuration   : 1s2 2s2 2p4 
  Number of open shells  : 1
  Command: /opt/apps/pkg/applications/orca/orca_6_1_0_linux_x86-64_shared_openmpi418/orca conf_023_atom8.inp "" > conf_023_atom8.out
Returned from the atomic calculation with res=0
Calculating cut-offs                               ... done
Initializing the effective Hamiltonian             ... done
Setting up the integral package (SHARK)            ... done
done (   1.8 sec)
done (   1.7 sec)
Mapping shells                                     ... done
Starting the XC term evaluation                    ... done (   0.5 sec)
  promolecular density results
     # of electrons  =    271.990370389
     EX              =   -168.151932996
     EC              =    -11.745781824
     EX+EC           =   -179.897714820
Transforming the Hamiltonian                       ... done (   0.1 sec)
done (   0.1 sec)
Back transforming the eigenvectors                 ... done (   0.3 sec)
done
                      ------------------
                      INITIAL GUESS DONE (   8.2 sec)
                      ------------------
             **** ENERGY FILE WAS UPDATED (conf_023.en.tmp) ****
Finished Guess after  10.4 sec
Maximum memory used throughout the entire GUESS-calculation: 55.2 MB


           ************************************************************
           *        Program running with 4 parallel MPI-processes     *
           *              working on a common directory               *
           ************************************************************

-------------------------------------------------------------------------------------------
                                      ORCA LEAN-SCF
                              memory conserving SCF solver
-------------------------------------------------------------------------------------------

----------------------------------------D-I-I-S--------------------------------------------
Iteration    Energy (Eh)           Delta-E    RMSDP     MaxDP     DIISErr   Damp  Time(sec)
-------------------------------------------------------------------------------------------
               ***  Starting incremental Fock matrix formation  ***
    1    -394.3774975434489534     0.00e+00  5.86e-03  9.55e-02  2.23e-01  0.700  74.5
    2    -394.9458731646673186    -5.68e-01  4.24e-03  6.80e-02  1.12e-01  0.700  31.5
                               ***Turning on AO-DIIS***
    3    -395.2099448312205823    -2.64e-01  2.44e-03  3.47e-02  5.88e-02  0.700  29.4
    4    -395.3666950307938350    -1.57e-01  5.36e-03  7.35e-02  3.41e-02  0.000  28.2
    5    -395.7080552733295917    -3.41e-01  4.50e-04  6.85e-03  7.16e-03  0.000  32.2
    6    -395.7098817958390100    -1.83e-03  2.36e-04  4.79e-03  3.51e-03  0.000  25.1
                              *** Initializing SOSCF ***
---------------------------------------S-O-S-C-F--------------------------------------
Iteration    Energy (Eh)           Delta-E    RMSDP     MaxDP     MaxGrad    Time(sec)
--------------------------------------------------------------------------------------
    7    -395.7104050387411007    -5.23e-04  1.24e-04  3.51e-03  2.71e-03    22.5
               *** Restarting incremental Fock matrix formation ***
    8    -395.7106148417301483    -2.10e-04  8.11e-05  1.72e-03  1.34e-03    69.4
    9    -395.7106699921678228    -5.52e-05  9.83e-05  2.99e-03  6.29e-04    42.1
   10    -395.7106845478947434    -1.46e-05  3.14e-05  1.56e-03  2.83e-04    41.8
   11    -395.7106910001475626    -6.45e-06  1.13e-05  3.02e-04  5.80e-05    36.3
   12    -395.7106911549590222    -1.55e-07  5.11e-06  1.05e-04  4.42e-05    28.2
                 **** Energy Check signals convergence ****

               *****************************************************
               *                     SUCCESS                       *
               *           SCF CONVERGED AFTER  12 CYCLES          *
               *****************************************************

 done (  128.940 sec)
Old exchange energy                            :    -40.322366123 Eh
New exchange energy                            :    -40.322469927 Eh
Exchange energy change after final integration :     -0.000103804 Eh
Total energy after final integration           :   -395.710795272 Eh
             **** ENERGY FILE WAS UPDATED (conf_023.en.tmp) ****

----------------
TOTAL SCF ENERGY
----------------

Total Energy       :       -395.71079527155223 Eh          -10767.83817 eV

Components:
Nuclear Repulsion  :       1922.50984709624572 Eh           52314.15254 eV
Electronic Energy  :      -2318.22053856426419 Eh          -63081.98788 eV
One Electron Energy:      -4461.10698164604946 Eh         -121392.89247 eV
Two Electron Energy:       2142.88644308178527 Eh           58310.90459 eV

Virial components:
Potential Energy   :       -709.38158515122677 Eh          -19303.25429 eV
Kinetic Energy     :        313.67078987967460 Eh            8535.41612 eV
Virial Ratio       :          2.26154811999979

DFT components:
N(Alpha)           :       97.999932901271 electrons
N(Beta)            :       97.999932901271 electrons
N(Total)           :      195.999865802542 electrons
E(X)               :      -51.261237454851 Eh       
E(C)               :       -7.928402508922 Eh       
E(XC)              :      -59.189639963773 Eh       

---------------
SCF CONVERGENCE
---------------

  Last Energy change         ...    1.5481e-07  Tolerance :   1.0000e-06
  Last MAX-Density change    ...    1.0454e-04  Tolerance :   1.0000e-05
  Last RMS-Density change    ...    5.1117e-06  Tolerance :   1.0000e-06
  Last DIIS Error            ...    2.7112e-03  Tolerance :   1.0000e-06
  Last Orbital Gradient      ...    4.4181e-05  Tolerance :   5.0000e-05
  Last Orbital Rotation      ...    1.7616e-04  Tolerance :   5.0000e-05


----------------
ORBITAL ENERGIES
----------------

  NO   OCC          E(Eh)            E(eV) 
   0   2.0000      -1.387262       -37.7493 
   1   2.0000      -1.382148       -37.6101 
   2   2.0000      -1.379780       -37.5457 
   3   2.0000      -1.379689       -37.5432 
   4   2.0000      -1.378954       -37.5232 
   5   2.0000      -1.376216       -37.4487 
   6   2.0000      -1.370698       -37.2986 
   7   2.0000      -1.366901       -37.1953 
   8   2.0000      -1.278491       -34.7895 
   9   2.0000      -1.184361       -32.2281 
  10   2.0000      -1.059899       -28.8413 
  11   2.0000      -1.052581       -28.6422 
  12   2.0000      -1.041506       -28.3408 
  13   2.0000      -1.030082       -28.0299 
  14   2.0000      -0.985283       -26.8109 
  15   2.0000      -0.962946       -26.2031 
  16   2.0000      -0.949833       -25.8463 
  17   2.0000      -0.922277       -25.0964 
  18   2.0000      -0.921118       -25.0649 
  19   2.0000      -0.919846       -25.0303 
  20   2.0000      -0.916428       -24.9373 
  21   2.0000      -0.915443       -24.9105 
  22   2.0000      -0.899032       -24.4639 
  23   2.0000      -0.858006       -23.3475 
  24   2.0000      -0.834333       -22.7033 
  25   2.0000      -0.801191       -21.8015 
  26   2.0000      -0.795788       -21.6545 
  27   2.0000      -0.793200       -21.5841 
  28   2.0000      -0.780947       -21.2506 
  29   2.0000      -0.779309       -21.2061 
  30   2.0000      -0.768833       -20.9210 
  31   2.0000      -0.759946       -20.6792 
  32   2.0000      -0.738319       -20.0907 
  33   2.0000      -0.737039       -20.0559 
  34   2.0000      -0.713839       -19.4245 
  35   2.0000      -0.709596       -19.3091 
  36   2.0000      -0.694888       -18.9089 
  37   2.0000      -0.689087       -18.7510 
  38   2.0000      -0.685018       -18.6403 
  39   2.0000      -0.681828       -18.5535 
  40   2.0000      -0.678292       -18.4573 
  41   2.0000      -0.668806       -18.1991 
  42   2.0000      -0.662493       -18.0274 
  43   2.0000      -0.644209       -17.5298 
  44   2.0000      -0.640544       -17.4301 
  45   2.0000      -0.640038       -17.4163 
  46   2.0000      -0.639380       -17.3984 
  47   2.0000      -0.634695       -17.2709 
  48   2.0000      -0.632354       -17.2072 
  49   2.0000      -0.630781       -17.1644 
  50   2.0000      -0.622467       -16.9382 
  51   2.0000      -0.619816       -16.8661 
  52   2.0000      -0.615902       -16.7595 
  53   2.0000      -0.614933       -16.7332 
  54   2.0000      -0.611124       -16.6295 
  55   2.0000      -0.610583       -16.6148 
  56   2.0000      -0.608283       -16.5522 
  57   2.0000      -0.605918       -16.4879 
  58   2.0000      -0.603933       -16.4339 
  59   2.0000      -0.599061       -16.3013 
  60   2.0000      -0.593042       -16.1375 
  61   2.0000      -0.588227       -16.0065 
  62   2.0000      -0.585764       -15.9395 
  63   2.0000      -0.578847       -15.7512 
  64   2.0000      -0.572034       -15.5658 
  65   2.0000      -0.567313       -15.4374 
  66   2.0000      -0.554505       -15.0889 
  67   2.0000      -0.552397       -15.0315 
  68   2.0000      -0.547522       -14.8988 
  69   2.0000      -0.539968       -14.6933 
  70   2.0000      -0.535972       -14.5846 
  71   2.0000      -0.533954       -14.5296 
  72   2.0000      -0.532668       -14.4946 
  73   2.0000      -0.525720       -14.3056 
  74   2.0000      -0.521684       -14.1957 
  75   2.0000      -0.518801       -14.1173 
  76   2.0000      -0.512420       -13.9436 
  77   2.0000      -0.510626       -13.8948 
  78   2.0000      -0.500845       -13.6287 
  79   2.0000      -0.499742       -13.5987 
  80   2.0000      -0.498594       -13.5674 
  81   2.0000      -0.493295       -13.4232 
  82   2.0000      -0.489515       -13.3204 
  83   2.0000      -0.486043       -13.2259 
  84   2.0000      -0.483901       -13.1676 
  85   2.0000      -0.469407       -12.7732 
  86   2.0000      -0.464127       -12.6295 
  87   2.0000      -0.462296       -12.5797 
  88   2.0000      -0.459638       -12.5074 
  89   2.0000      -0.422375       -11.4934 
  90   2.0000      -0.401892       -10.9360 
  91   2.0000      -0.388324       -10.5668 
  92   2.0000      -0.370815       -10.0904 
  93   2.0000      -0.369633       -10.0582 
  94   2.0000      -0.368821       -10.0361 
  95   2.0000      -0.367938       -10.0121 
  96   2.0000      -0.351590        -9.5673 
  97   2.0000      -0.335549        -9.1308 
  98   0.0000      -0.010772        -0.2931 
  99   0.0000       0.017002         0.4627 
 100   0.0000       0.045557         1.2397 
 101   0.0000       0.047009         1.2792 
 102   0.0000       0.049211         1.3391 
 103   0.0000       0.049646         1.3509 
 104   0.0000       0.050781         1.3818 
 105   0.0000       0.072313         1.9677 
 106   0.0000       0.078139         2.1263 
 107   0.0000       0.081421         2.2156 
 108   0.0000       0.086320         2.3489 
*Only the first 10 virtual orbitals were printed.

                    ********************************
                    * MULLIKEN POPULATION ANALYSIS *
                    ********************************

-----------------------
MULLIKEN ATOMIC CHARGES
-----------------------
   0 C :   -0.053568
   1 C :   -0.089608
   2 C :   -0.072786
   3 C :   -0.018283
   4 C :    0.031609
   5 C :    0.193200
   6 F :   -0.226480
   7 C :   -0.134982
   8 C :   -0.085555
   9 C :    0.069740
  10 C :    0.240800
  11 F :   -0.216320
  12 C :   -0.154768
  13 C :    0.285436
  14 O :   -0.279247
  15 O :   -0.221276
  16 C :    0.063776
  17 C :    0.049093
  18 C :    0.176479
  19 F :   -0.228382
  20 C :   -0.112499
  21 C :   -0.078622
  22 C :    0.061533
  23 C :    0.171188
  24 F :   -0.214922
  25 C :    0.193032
  26 F :   -0.209644
  27 C :    0.173786
  28 F :   -0.217398
  29 C :    0.026069
  30 C :    0.045072
  31 C :    0.045169
  32 C :    0.226354
  33 F :   -0.204802
  34 C :    0.065993
  35 C :    0.182938
  36 F :   -0.229028
  37 C :    0.052378
  38 H :    0.035537
  39 H :    0.027509
  40 H :    0.027688
  41 H :    0.047407
  42 H :    0.047268
  43 H :    0.059986
  44 H :    0.060860
  45 H :    0.032588
  46 H :    0.048847
  47 H :    0.064037
  48 H :    0.048131
  49 H :    0.043723
  50 H :    0.037381
  51 H :    0.032965
  52 H :    0.050030
  53 H :    0.030563
Sum of atomic charges:    0.0000000

--------------------------------
MULLIKEN REDUCED ORBITAL CHARGES
--------------------------------
  0 C s       :     0.930673  s :     0.930673
      pz      :     1.055671  p :     3.048393
      px      :     0.949788
      py      :     1.042934
      dz2     :     0.015307  d :     0.074502
      dxz     :     0.014872
      dyz     :     0.010940
      dx2y2   :     0.014213
      dxy     :     0.019170

  1 C s       :     0.995853  s :     0.995853
      pz      :     0.945613  p :     2.992152
      px      :     0.991800
      py      :     1.054739
      dz2     :     0.018515  d :     0.101603
      dxz     :     0.022056
      dyz     :     0.023141
      dx2y2   :     0.017402
      dxy     :     0.020490

  2 C s       :     0.981286  s :     0.981286
      pz      :     0.985573  p :     2.990596
      px      :     0.945869
      py      :     1.059153
      dz2     :     0.018210  d :     0.100904
      dxz     :     0.021693
      dyz     :     0.023790
      dx2y2   :     0.018165
      dxy     :     0.019046

  3 C s       :     1.037428  s :     1.037428
      pz      :     0.988644  p :     2.852713
      px      :     0.954552
      py      :     0.909517
      dz2     :     0.029113  d :     0.128142
      dxz     :     0.036622
      dyz     :     0.025432
      dx2y2   :     0.014217
      dxy     :     0.022759

  4 C s       :     0.963612  s :     0.963612
      pz      :     0.958421  p :     2.917806
      px      :     0.938703
      py      :     1.020682
      dz2     :     0.019585  d :     0.086973
      dxz     :     0.029046
      dyz     :     0.012604
      dx2y2   :     0.010237
      dxy     :     0.015500

  5 C s       :     1.059342  s :     1.059342
      pz      :     0.674021  p :     2.561760
      px      :     0.956711
      py      :     0.931027
      dz2     :     0.045996  d :     0.185698
      dxz     :     0.056692
      dyz     :     0.038488
      dx2y2   :     0.015349
      dxy     :     0.029173

  6 F s       :     1.886049  s :     1.886049
      pz      :     1.491409  p :     5.316792
      px      :     1.914737
      py      :     1.910646
      dz2     :     0.009733  d :     0.023638
      dxz     :     0.006098
      dyz     :     0.006466
      dx2y2   :     0.000641
      dxy     :     0.000701

  7 C s       :     0.989164  s :     0.989164
      pz      :     0.977295  p :     3.034708
      px      :     0.973135
      py      :     1.084278
      dz2     :     0.020828  d :     0.111110
      dxz     :     0.034390
      dyz     :     0.021367
      dx2y2   :     0.013527
      dxy     :     0.020996

  8 C s       :     1.015032  s :     1.015032
      pz      :     0.971038  p :     2.939903
      px      :     0.979417
      py      :     0.989448
      dz2     :     0.027350  d :     0.130620
      dxz     :     0.026546
      dyz     :     0.013743
      dx2y2   :     0.030823
      dxy     :     0.032159

  9 C s       :     0.968857  s :     0.968857
      pz      :     0.989364  p :     2.874434
      px      :     0.887580
      py      :     0.997491
      dz2     :     0.012193  d :     0.086969
      dxz     :     0.020550
      dyz     :     0.011779
      dx2y2   :     0.021901
      dxy     :     0.020546

 10 C s       :     1.058356  s :     1.058356
      pz      :     0.857319  p :     2.512696
      px      :     0.817379
      py      :     0.837998
      dz2     :     0.035870  d :     0.188147
      dxz     :     0.042502
      dyz     :     0.021518
      dx2y2   :     0.044443
      dxy     :     0.043813

 11 F s       :     1.884562  s :     1.884562
      pz      :     1.819772  p :     5.307810
      px      :     1.730573
      py      :     1.757465
      dz2     :     0.003715  d :     0.023948
      dxz     :     0.005310
      dyz     :     0.003835
      dx2y2   :     0.004624
      dxy     :     0.006465

 12 C s       :     1.011215  s :     1.011215
      pz      :     1.041338  p :     3.044632
      px      :     0.919202
      py      :     1.084091
      dz2     :     0.022271  d :     0.098921
      dxz     :     0.022158
      dyz     :     0.010500
      dx2y2   :     0.022484
      dxy     :     0.021508

 13 C s       :     1.078812  s :     1.078812
      pz      :     0.758620  p :     2.355921
      px      :     0.877658
      py      :     0.719643
      dz2     :     0.075249  d :     0.279831
      dxz     :     0.093493
      dyz     :     0.063598
      dx2y2   :     0.022538
      dxy     :     0.024952

 14 O s       :     1.762378  s :     1.762378
      pz      :     1.347795  p :     4.478049
      px      :     1.727496
      py      :     1.402757
      dz2     :     0.012765  d :     0.038821
      dxz     :     0.009459
      dyz     :     0.013241
      dx2y2   :     0.001481
      dxy     :     0.001874

 15 O s       :     1.650992  s :     1.650992
      pz      :     1.518508  p :     4.527414
      px      :     1.260590
      py      :     1.748317
      dz2     :     0.010879  d :     0.042869
      dxz     :     0.011380
      dyz     :     0.005767
      dx2y2   :     0.007827
      dxy     :     0.007015

 16 C s       :     1.040403  s :     1.040403
      pz      :     1.032257  p :     2.724627
      px      :     0.701370
      py      :     0.991000
      dz2     :     0.035230  d :     0.171194
      dxz     :     0.043161
      dyz     :     0.015463
      dx2y2   :     0.034867
      dxy     :     0.042474

 17 C s       :     0.968640  s :     0.968640
      pz      :     0.980774  p :     2.898178
      px      :     0.924057
      py      :     0.993346
      dz2     :     0.016161  d :     0.084089
      dxz     :     0.021706
      dyz     :     0.010531
      dx2y2   :     0.015698
      dxy     :     0.019994

 18 C s       :     1.060290  s :     1.060290
      pz      :     0.808524  p :     2.579169
      px      :     0.891382
      py      :     0.879263
      dz2     :     0.043410  d :     0.184062
      dxz     :     0.046413
      dyz     :     0.024684
      dx2y2   :     0.032013
      dxy     :     0.037542

 19 F s       :     1.885667  s :     1.885667
      pz      :     1.695742  p :     5.319099
      px      :     1.818334
      py      :     1.805022
      dz2     :     0.005293  d :     0.023616
      dxz     :     0.005931
      dyz     :     0.005392
      dx2y2   :     0.003231
      dxy     :     0.003769

 20 C s       :     0.993100  s :     0.993100
      pz      :     1.015015  p :     3.001195
      px      :     0.978844
      py      :     1.007336
      dz2     :     0.026248  d :     0.118203
      dxz     :     0.032278
      dyz     :     0.013333
      dx2y2   :     0.022616
      dxy     :     0.023729

 21 C s       :     0.999486  s :     0.999486
      pz      :     0.959734  p :     2.950786
      px      :     0.986678
      py      :     1.004375
      dz2     :     0.009935  d :     0.128350
      dxz     :     0.020437
      dyz     :     0.023521
      dx2y2   :     0.037677
      dxy     :     0.036779

 22 C s       :     0.974092  s :     0.974092
      pz      :     0.984063  p :     2.875655
      px      :     0.907840
      py      :     0.983752
      dz2     :     0.006018  d :     0.088720
      dxz     :     0.020130
      dyz     :     0.011504
      dx2y2   :     0.028427
      dxy     :     0.022641

 23 C s       :     1.058138  s :     1.058138
      pz      :     0.960129  p :     2.587261
      px      :     0.901793
      py      :     0.725339
      dz2     :     0.013044  d :     0.183413
      dxz     :     0.030818
      dyz     :     0.036146
      dx2y2   :     0.050476
      dxy     :     0.052929

 24 F s       :     1.887933  s :     1.887933
      pz      :     1.900307  p :     5.303073
      px      :     1.829303
      py      :     1.573463
      dz2     :     0.002840  d :     0.023916
      dxz     :     0.002060
      dyz     :     0.005380
      dx2y2   :     0.006225
      dxy     :     0.007411

 25 C s       :     1.045727  s :     1.045727
      pz      :     1.012934  p :     2.586090
      px      :     0.647270
      py      :     0.925885
      dz2     :     0.012407  d :     0.175151
      dxz     :     0.044131
      dyz     :     0.020915
      dx2y2   :     0.039793
      dxy     :     0.057906

 26 F s       :     1.889014  s :     1.889014
      pz      :     1.908227  p :     5.296211
      px      :     1.441069
      py      :     1.946914
      dz2     :     0.002826  d :     0.024420
      dxz     :     0.007388
      dyz     :     0.000112
      dx2y2   :     0.008529
      dxy     :     0.005565

 27 C s       :     1.058122  s :     1.058122
      pz      :     0.944600  p :     2.585216
      px      :     0.905828
      py      :     0.734789
      dz2     :     0.013661  d :     0.182876
      dxz     :     0.031843
      dyz     :     0.035321
      dx2y2   :     0.050454
      dxy     :     0.051597

 28 F s       :     1.888292  s :     1.888292
      pz      :     1.879189  p :     5.305253
      px      :     1.831068
      py      :     1.594996
      dz2     :     0.003088  d :     0.023852
      dxz     :     0.002288
      dyz     :     0.005564
      dx2y2   :     0.005784
      dxy     :     0.007128

 29 C s       :     0.968651  s :     0.968651
      pz      :     0.993981  p :     2.916356
      px      :     0.928482
      py      :     0.993893
      dz2     :     0.007157  d :     0.088923
      dxz     :     0.020432
      dyz     :     0.010229
      dx2y2   :     0.027916
      dxy     :     0.023189

 30 C s       :     0.982062  s :     0.982062
      pz      :     0.985095  p :     2.874791
      px      :     0.949534
      py      :     0.940162
      dz2     :     0.017035  d :     0.098075
      dxz     :     0.029542
      dyz     :     0.009767
      dx2y2   :     0.016400
      dxy     :     0.025331

 31 C s       :     0.976373  s :     0.976373
      pz      :     0.970179  p :     2.888915
      px      :     0.952714
      py      :     0.966021
      dz2     :     0.016120  d :     0.089544
      dxz     :     0.027910
      dyz     :     0.009913
      dx2y2   :     0.013020
      dxy     :     0.022580

 32 C s       :     1.064946  s :     1.064946
      pz      :     0.785494  p :     2.519180
      px      :     0.945550
      py      :     0.788136
      dz2     :     0.037961  d :     0.189520
      dxz     :     0.043302
      dyz     :     0.024125
      dx2y2   :     0.039549
      dxy     :     0.044583

 33 F s       :     1.884331  s :     1.884331
      pz      :     1.703766  p :     5.296186
      px      :     1.915471
      py      :     1.676949
      dz2     :     0.005723  d :     0.024284
      dxz     :     0.003295
      dyz     :     0.007489
      dx2y2   :     0.004142
      dxy     :     0.003635

 34 C s       :     0.969997  s :     0.969997
      pz      :     0.966374  p :     2.877201
      px      :     0.927276
      py      :     0.983552
      dz2     :     0.014687  d :     0.086810
      dxz     :     0.021580
      dyz     :     0.009972
      dx2y2   :     0.018338
      dxy     :     0.022232

 35 C s       :     1.063394  s :     1.063394
      pz      :     0.793620  p :     2.568443
      px      :     0.855853
      py      :     0.918970
      dz2     :     0.045340  d :     0.185226
      dxz     :     0.052245
      dyz     :     0.035247
      dx2y2   :     0.019996
      dxy     :     0.032399

 36 F s       :     1.886453  s :     1.886453
      pz      :     1.661855  p :     5.319017
      px      :     1.746487
      py      :     1.910675
      dz2     :     0.005348  d :     0.023557
      dxz     :     0.008320
      dyz     :     0.004135
      dx2y2   :     0.002749
      dxy     :     0.003005

 37 C s       :     0.952990  s :     0.952990
      pz      :     0.988454  p :     2.907227
      px      :     0.901312
      py      :     1.017460
      dz2     :     0.026120  d :     0.087405
      dxz     :     0.020749
      dyz     :     0.008938
      dx2y2   :     0.012213
      dxy     :     0.019384

 38 H s       :     0.919378  s :     0.919378
      pz      :     0.022123  p :     0.045084
      px      :     0.012115
      py      :     0.010846

 39 H s       :     0.927643  s :     0.927643
      pz      :     0.013689  p :     0.044848
      px      :     0.011950
      py      :     0.019209

 40 H s       :     0.927487  s :     0.927487
      pz      :     0.012537  p :     0.044825
      px      :     0.014082
      py      :     0.018206

 41 H s       :     0.909693  s :     0.909693
      pz      :     0.012134  p :     0.042900
      px      :     0.012720
      py      :     0.018046

 42 H s       :     0.909775  s :     0.909775
      pz      :     0.013461  p :     0.042957
      px      :     0.010944
      py      :     0.018552

 43 H s       :     0.896497  s :     0.896497
      pz      :     0.013338  p :     0.043517
      px      :     0.011209
      py      :     0.018970

 44 H s       :     0.895686  s :     0.895686
      pz      :     0.011994  p :     0.043454
      px      :     0.013143
      py      :     0.018318

 45 H s       :     0.916161  s :     0.916161
      pz      :     0.019725  p :     0.051251
      px      :     0.016791
      py      :     0.014736

 46 H s       :     0.898851  s :     0.898851
      pz      :     0.020841  p :     0.052302
      px      :     0.011090
      py      :     0.020371

 47 H s       :     0.880647  s :     0.880647
      pz      :     0.023561  p :     0.055316
      px      :     0.015509
      py      :     0.016247

 48 H s       :     0.899562  s :     0.899562
      pz      :     0.015576  p :     0.052307
      px      :     0.014084
      py      :     0.022647

 49 H s       :     0.903781  s :     0.903781
      pz      :     0.015000  p :     0.052495
      px      :     0.014107
      py      :     0.023388

 50 H s       :     0.911158  s :     0.911158
      pz      :     0.021467  p :     0.051461
      px      :     0.013815
      py      :     0.016178

 51 H s       :     0.915934  s :     0.915934
      pz      :     0.018564  p :     0.051101
      px      :     0.015182
      py      :     0.017355

 52 H s       :     0.897749  s :     0.897749
      pz      :     0.016592  p :     0.052221
      px      :     0.017936
      py      :     0.017693

 53 H s       :     0.915856  s :     0.915856
      pz      :     0.026183  p :     0.053581
      px      :     0.011852
      py      :     0.015546



                     *******************************
                     * LOEWDIN POPULATION ANALYSIS *
                     *******************************

----------------------
LOEWDIN ATOMIC CHARGES
----------------------
   0 C :   -0.108095
   1 C :   -0.088103
   2 C :   -0.073176
   3 C :   -0.014428
   4 C :   -0.030692
   5 C :    0.046671
   6 F :   -0.065711
   7 C :   -0.038790
   8 C :   -0.016816
   9 C :   -0.016739
  10 C :    0.052579
  11 F :   -0.059978
  12 C :   -0.030874
  13 C :   -0.026625
  14 O :   -0.095502
  15 O :    0.034399
  16 C :   -0.008812
  17 C :   -0.010419
  18 C :    0.045390
  19 F :   -0.066781
  20 C :   -0.039867
  21 C :   -0.031642
  22 C :   -0.012856
  23 C :    0.038671
  24 F :   -0.060383
  25 C :    0.038306
  26 F :   -0.056099
  27 C :    0.037249
  28 F :   -0.062708
  29 C :   -0.021835
  30 C :   -0.017482
  31 C :   -0.028945
  32 C :    0.056643
  33 F :   -0.049612
  34 C :   -0.015194
  35 C :    0.048749
  36 F :   -0.067553
  37 C :   -0.034668
  38 H :    0.046446
  39 H :    0.043451
  40 H :    0.043503
  41 H :    0.045757
  42 H :    0.045607
  43 H :    0.058378
  44 H :    0.058458
  45 H :    0.055621
  46 H :    0.058699
  47 H :    0.057439
  48 H :    0.059035
  49 H :    0.056631
  50 H :    0.054918
  51 H :    0.055832
  52 H :    0.059235
  53 H :    0.052717

-------------------------------
LOEWDIN REDUCED ORBITAL CHARGES
-------------------------------
  0 C s       :     0.766041  s :     0.766041
      pz      :     1.067800  p :     3.096549
      px      :     0.962604
      py      :     1.066145
      dz2     :     0.049712  d :     0.245505
      dxz     :     0.049600
      dyz     :     0.035042
      dx2y2   :     0.045112
      dxy     :     0.066038

[...]
  28 F       0.100913      0.026297      0.083574      0.015043     -0.004018     -0.116340      0.054661      0.040526     -0.064515     -0.065893
  29 C       0.556880      0.194363      0.116940      0.196482      0.093580     -0.252952      0.127185     -0.000031     -0.076842     -0.004651
  30 C      -0.467048     -0.065515     -0.087926     -0.003385     -0.169025      0.115319     -0.177870      0.174501     -0.089810      0.144040
  31 C       0.565848     -0.026968     -0.291516      0.006927      0.044503     -0.115268      0.148127     -0.248139     -0.108369      0.196137
  32 C      -0.351048     -0.071991      0.118981     -0.207382      0.205890      0.073214     -0.131419      0.047859     -0.023250      0.031276
  33 F      -0.003153      0.054656     -0.041656      0.036824     -0.027259     -0.048688      0.063139     -0.049740      0.104680     -0.083203
  34 C       0.636663     -0.065881      0.038482      0.009329     -0.175081     -0.112740      0.112592     -0.111766      0.135707     -0.206905
  35 C      -0.491133     -0.062732     -0.346436     -0.066621      0.121512     -0.111002      0.013142      0.182276     -0.060352      0.036253
  36 F      -0.042828     -0.007300      0.043488     -0.018317     -0.068128      0.051640     -0.006652     -0.131625      0.091499     -0.019644
  37 C       0.391434     -0.006389      0.014581      0.030283     -0.320268      0.076612     -0.034482     -0.238608      0.103386     -0.020537
  38 H      -0.002686      0.000436     -0.053911      0.004315     -0.021480     -0.012620      0.000198     -0.008215     -0.025670     -0.000826
  39 H      -0.004221      0.045598      0.034348      0.018166      0.006695     -0.011196      0.002756     -0.008366      0.005158      0.012424
  40 H       0.007478     -0.053384      0.028763     -0.014120      0.005873     -0.006269     -0.002305     -0.005504      0.001276     -0.017486
  41 H      -0.013870      0.059635     -0.002305      0.021760      0.003594      0.003666      0.000024      0.001538      0.007983      0.022488
  42 H       0.004305     -0.058723     -0.010992     -0.025871      0.000523      0.006572     -0.000971      0.006466      0.005241     -0.018747
  43 H       0.006718      0.055771      0.010634      0.020143     -0.001083     -0.005201      0.001568     -0.005168     -0.004845      0.019082
  44 H       0.018580     -0.055129      0.002594     -0.015737     -0.003113     -0.000384     -0.000588     -0.000952     -0.007355     -0.022413
  45 H       0.040367      0.002870      0.032450      0.001827      0.010000      0.010554      0.000367      0.010237      0.008124      0.000594
  46 H       0.027259      0.030624     -0.029278      0.013854     -0.012093      0.006719     -0.001006      0.005818     -0.011811      0.012621
  47 H       0.025811     -0.017767      0.045012     -0.008802      0.013907      0.005909     -0.000846      0.009251      0.014241     -0.007788
  48 H       0.037292     -0.040603      0.010473     -0.014751      0.003568      0.009231     -0.000508      0.007605      0.005699     -0.012098
  49 H       0.032408      0.042885      0.001805      0.016751      0.002829      0.009472     -0.000111      0.008233     -0.001430      0.012784
  50 H      -0.032128      0.016617     -0.043461      0.006127     -0.020174     -0.006824     -0.001383     -0.006413     -0.016260      0.009700
  51 H       0.029810      0.021539     -0.035574      0.008253     -0.011157      0.007479      0.001107      0.005863     -0.012211      0.011872
  52 H       0.046467     -0.023753      0.019268     -0.009795      0.004154      0.011608     -0.001128      0.011864      0.007751     -0.009704
  53 H       0.014370      0.002186     -0.047257      0.001366     -0.014886      0.003488     -0.000632      0.006926     -0.011755      0.001764

 MBIS THIRD RADIAL MOMENT (A.U.):
  ATOM      <r^3>
   0 C   44.267193
   1 C   41.222334
   2 C   41.586801
   3 C   33.151796
   4 C   41.070292
   5 C   29.774850
   6 F   18.082870
   7 C   38.843245
   8 C   32.170167
   9 C   40.525931
  10 C   28.929469
  11 F   18.105872
  12 C   41.950972
  13 C   22.263855
  14 O   25.734648
  15 O   23.925882
  16 C   29.506454
  17 C   41.291351
  18 C   29.757455
  19 F   18.097555
  20 C   37.146692
  21 C   33.506477
  22 C   39.655759
  23 C   31.610194
  24 F   18.089568
  25 C   33.829701
  26 F   17.902201
  27 C   31.655316
  28 F   18.110540
  29 C   39.960598
  30 C   36.590633
  31 C   39.776198
  32 C   28.766212
  33 F   18.089885
  34 C   40.452882
  35 C   29.852142
  36 F   18.105442
  37 C   40.938979
  38 H    2.352949
  39 H    2.379547
  40 H    2.378364
  41 H    2.296357
  42 H    2.299498
  43 H    2.212285
  44 H    2.214599
  45 H    2.002057
  46 H    1.914127
  47 H    1.790983
  48 H    1.923210
  49 H    1.972912
  50 H    2.132977
  51 H    2.043874
  52 H    1.907811
  53 H    2.000126

-------------------------
RESP CHARGES GENERATION
-------------------------
Number of atoms                    ...           54
Number of "pure atoms"             ...           54
Grid spacing                       ...     0.300000
Point Cut-Off                      ...     2.800000
Van-der-Waals Radii                ...        COSMO
Total charge                       ...            0
Penalty function                   ... hyperbolic
Penalty function wa                ... 0.000500
Penalty function wb                ... 0.100000
Dipole moment constraint           ...        FALSE
Equivalent atom charge constraint  ...        FALSE

Grid generated                     ...      0.0 sec
Grid points                        ...        28183
Potential calculated               ...     10.7 sec
RespFile stored                    ...           ok

Iter     dqmax
--------------

0     0.929404
1     0.036994
2     0.004502
3     0.000585
4     0.000077
5     0.000010
6     0.000001
7     0.000000

Charges calculated                 ...      1.4 sec

RESP Charges            
--------------------------------
  0   C   :      -0.524526
  1   C   :       0.224900
  2   C   :      -0.093412
  3   C   :       0.166481
  4   C   :      -0.434976
  5   C   :       0.413525
  6   F   :      -0.201831
  7   C   :      -0.361421
  8   C   :       0.451927
  9   C   :      -0.523426
 10   C   :       0.517622
 11   F   :      -0.217502
 12   C   :      -0.595876
 13   C   :       0.922448
 14   O   :      -0.527561
 15   O   :      -0.392136
 16   C   :       0.425746
 17   C   :      -0.518993
 18   C   :       0.373384
 19   F   :      -0.199234
 20   C   :      -0.004389
 21   C   :       0.141980
 22   C   :      -0.433920
 23   C   :       0.336307
 24   F   :      -0.187873
 25   C   :       0.085059
 26   F   :      -0.148657
 27   C   :       0.299278
 28   F   :      -0.181826
 29   C   :      -0.409418
 30   C   :      -0.202676
 31   C   :      -0.326754
 32   C   :       0.535165
 33   F   :      -0.212883
 34   C   :      -0.533695
 35   C   :       0.409483
 36   F   :      -0.203876
 37   C   :      -0.410634
 38   H   :       0.129351
 39   H   :       0.127175
 40   H   :       0.125970
 41   H   :       0.000823
 42   H   :       0.005260
 43   H   :       0.067200
 44   H   :       0.064737
 45   H   :       0.202655
 46   H   :       0.246904
 47   H   :       0.275445
 48   H   :       0.242433
 49   H   :       0.230300
 50   H   :       0.186035
 51   H   :       0.214507
 52   H   :       0.250720
 53   H   :       0.174676
--------------------------------
Total charge:    -0.000000
--------------------------------

RESP charges calculated...

Timings:
Grid generation                 ...        0.023 sec (=   0.000 min)
Potential calculation           ...       10.659 sec (=   0.178 min)
Fit to the potential            ...        1.443 sec (=   0.024 min)
------------------------------------------------------------------------------

-------
TIMINGS
-------

Total SCF time: 0 days 0 hours 12 min 13 sec 

Total time                  ....     733.989 sec
Sum of individual times     ....     710.799 sec  ( 96.8%)

SCF preparation             ....       3.650 sec  (  0.5%)
Fock matrix formation       ....     585.591 sec  ( 79.8%)
  Startup                   ....       0.066 sec  (  0.0% of F)
  Split-RI-J                ....      45.639 sec  (  7.8% of F)
  Chain of spheres X        ....     542.655 sec  ( 92.7% of F)
  XC integration            ....      19.264 sec  (  3.3% of F)
    XC Preparation          ....       0.000 sec  (  0.0% of XC)
    Basis function eval.    ....       4.820 sec  ( 25.0% of XC)
    Density eval.           ....       4.112 sec  ( 21.3% of XC)
    XC-Functional eval.     ....       1.171 sec  (  6.1% of XC)
    XC-Potential eval.      ....       5.105 sec  ( 26.5% of XC)
Diagonalization             ....       0.000 sec  (  0.0%)
Density matrix formation    ....       0.782 sec  (  0.1%)
Total Energy calculation    ....       0.300 sec  (  0.0%)
Population analysis         ....     116.572 sec  ( 15.9%)
Orbital Transformation      ....       0.428 sec  (  0.1%)
Orbital Orthonormalization  ....       0.000 sec  (  0.0%)
DIIS solution               ....       2.483 sec  (  0.3%)
SOSCF solution              ....       0.994 sec  (  0.1%)
Finished LeanSCF after 734.0 sec

Maximum memory used throughout the entire LEANSCF-calculation: 116.8 MB


-------------------------------------------------------------------------------
                          DFT DISPERSION CORRECTION                            
                                                                               
                                DFTD4 V3.4.0                                   
-------------------------------------------------------------------------------
The wB97X-3c composite method is recognized
Using three-body term ABC
Active option DFTDOPT                   ...         5   

-------------------------   ----------------
Dispersion correction           -0.087677893
-------------------------   ----------------


-------------------------   --------------------
FINAL SINGLE POINT ENERGY      -395.798473164850
-------------------------   --------------------



           ************************************************************
           *        Program running with 4 parallel MPI-processes     *
           *              working on a common directory               *
           ************************************************************

------------------------------------------------------------------------------
                              ORCA PROPERTY CALCULATIONS
------------------------------------------------------------------------------

GBWName                                 ... conf_023.gbw
Number of atoms                         ...     54
Number of basis functions               ...    574
Max core memory                         ...   4000 MB

Electric properties:
Dipole moment                           ... YES
Quadrupole moment                       ...  NO
Static polarizability (Dipole/Dipole)   ...  NO
Static polarizability (Dipole/Quad.)    ...  NO
Static polarizability (Quad./Quad.)     ...  NO
Static polarizability (Velocity)        ...  NO
Static hyperpolarizability              ...  NO

Atomic electric properties:
Dipole moment                           ...  NO
Quadrupole moment                       ...  NO
Static polarizability                   ...  NO

Choice of electric origin               ... Center of mass
Position of electric origin             ...    -2.939007    -0.373944     0.667733

General magnetic properties:
Magnetizability                         ...  NO

EPR properties:
g-Tensor (aka g-matrix)                 ...  NO
Zero-Field splitting spin-orbit         ...  NO
Zero-field splitting spin-spin          ...  NO
Hyperfine couplings                     ...  NO (   0 nuclei)
Quadrupole couplings                    ...  NO (   0 nuclei)
Contact density                         ...  NO (   0 nuclei)

NMR properties:
Chemical shifts                         ...  NO (   0 nuclei)
Spin-rotation constants                 ...  NO (   0 nuclei)
Spin-spin couplings                     ...  NO (   0 nuclei,    0 pairs)

Choice of magnetic origin               ... GIAO
Position of magnetic origin             ...     0.000000     0.000000     0.000000

Properties with geometric perturbations:
SCF Hessian                             ...  NO
IR spectrum                             ...  NO
VCD spectrum                            ...  NO
X-ray spectroscopy properties:
SCF XES/XAS/RIXS spectra                ...  NO

SCF SOC stabilization energy            ...  NO
Diagonal Born-Oppenheimer correction    ...  NO

-------------
DIPOLE MOMENT
-------------

Method             : SCF
Type of density    : Electron Density
Multiplicity       :   1
Irrep              :   0
Energy             :  -395.7107952715522288 Eh
Basis              : AO
                                X                 Y                 Z
Electronic contribution:    -70.503024865      -8.462329022      13.550592440
Nuclear contribution   :     74.379311600       9.086121659     -14.881853128
                        -----------------------------------------
Total Dipole Moment    :      3.876286735       0.623792637      -1.331260687
                        -----------------------------------------
Magnitude (a.u.)       :      4.145717203
Magnitude (Debye)      :     10.537575694



--------------------
Rotational spectrum 
--------------------
 
Rotational constants in cm-1:             0.011845             0.000755             0.000728 
Rotational constants in MHz :           355.114977            22.645702            21.813220 

Dipole components along the rotational axes: 
x,y,z [a.u.] :     3.940734    -1.234301     0.366179 
x,y,z [Debye]:    10.016551    -3.137343     0.930752 

 

Dipole moment calculation done in   0.0 sec 

Maximum memory used throughout the entire PROP-calculation: 57.5 MB

--------------------------------
SUGGESTED CITATIONS FOR THIS RUN
--------------------------------

Below you find a list of papers that are relevant to this ORCA run
We neither can nor want to force you to cite these papers, but we appreciate if you do
You receive ORCA, which is the product of decades of hard work by many enthusiastic individuals, for free
The only thing we kindly ask in return is that you cite our papers,
We deeply appreciate it, if you show your appreciation for ORCA by not just citing the generic ORCA reference.

Please note that relegating all ORCA citations to the supporting information does *not* help us.
SI sections are not indexed - citations you put there will not count into any citation statistics
But we need these citations in order to attract the funding resources that allow us to do what we are doing

Therefore, if you are a happy ORCA user, please consider citing a few of the papers listed below in the main body of your paper

In addition to the list printed below, the program has created the file conf_023.bibtex that contains the list in bibtex format
You can import this file easily into all common literature databanks and citation aid programs


List of essential papers. We consider these as the minimum necessary citations

  1. Mueller, M.; Hansen, A.; Grimme, S.
     wB97X-3c: A composite range-separated hybrid DFT method with a molecule-optimized polarized valence double-zeta basis set
     J. Chem. Phys. 2023 158 , 014103
     doi.org/10.1063/5.0133026
  2. Neese, F.
     Software update: the ORCA program system, version 6.0
     WIRES Comput. Molec. Sci. 2025 15(1), e70019
     doi.org/10.1002/wcms.7019

List of papers to cite with high priority. The work reported in these papers was absolutely
necessary for this run to complete.
Our perspective: the developers of density functionals and basis sets usually get cited in chemistry papers
Good! But without the algorithms to do something with them, the functionals or basis sets would not do anything.
Hence, in our opinion, the algorithm design and method developments papers are equally worthy of getting cited

  1. Neese, F.
     An improvement of the resolution of the identity approximation for the formation of the Coulomb matrix
     J. Comp. Chem. 2003 24(14), 1740-1747
     doi.org/10.1002/jcc.10318
  2. Neese, F.; Wennmohs, F.; Hansen, A.; Becker, U.
     Efficient, approximate and parallel Hartree-Fock and hybrid DFT calculations. A 'chain-of-spheres' algorithm for the Hartree-Fock exchange
     Chem. Phys. 2009 356(1-3), 98-109
     doi.org/10.1016/j.chemphys.2008.10.036
  3. Caldeweyher, E.; Bannwarth, C.; Grimme, S.
     Extension of the D3 dispersion coefficient model
     J. Chem. Phys. 2017 147 , 034112
     doi.org/10.1063/1.4993215
  4. Caldeweyher, E.; Ehlert, S.; Hansen, A.; Neugebauer, H.; Spicher, S.; Bannwarth, C.; Grimme, S.
     A generally applicable atomic-charge dependent London dispersion correction
     J. Chem. Phys. 2019 150 , 154122
     doi.org/10.1063/1.5090222
  5. Caldeweyher, E.; Mewes, J.; Ehlert, S.; Grimme, S.
     Extension and evaluation of the D4 London-dispersion model for periodic systems
     Phys. Chem. Chem. Phys. 2020 22(16), 8499-8512
     doi.org/10.1039/D0CP00502A
  6. Helmich-Paris, B.; de Souza, B.; Neese, F.; Izsák, R.
     An improved chain of spheres for exchange algorithm
     J. Chem. Phys. 2021 155(10), 104109
     doi.org/10.1063/5.0058766
  7. Neese, F.
     The SHARK Integral Generation and Digestion System
     J. Comp. Chem. 2022 44(3), 381
     doi.org/10.1002/jcc.26942
  8. Wittmann, L.; Gordiy, I.; Friede, M.; Helmich-Paris, B.; Grimme, S.; Hansen, A.; Bursch, M.
     Extension of the D3 and D4 London Dispersion Corrections to the full Actinides Series
     Phys. Chem. Chem. Phys. 2024 26(32), 21379-21394
     doi.org/10.1039/D4CP01514B

List of suggested additional citations. These are papers that are important in the 'surrounding' of 
of this run, or papers that preceded the highly important papers. If you like your results we are grateful for a citation.

  1. Izsak, R.; Neese, F.
     An overlap fitted chain of spheres exchange method
     J. Chem. Phys. 2011 135 , 144105
     doi.org/10.1063/1.3646921
  2. Izsak, R.; Hansen, A.; Neese, F.
     The resolution of identity and chain of spheres approximations for the LPNO-CCSD singles Fock term
     Molec. Phys. 2012 110 , 2413-2417
     doi.org/10.1080/00268976.2012.687466
  3. Neese, F.
     The ORCA program system
     WIRES Comput. Molec. Sci. 2012 2(1), 73-78
     doi.org/10.1002/wcms.81
  4. Izsak, R.; Neese, F.; Klopper, W.
     Robust fitting techniques in the chain of spheres approximation to the Fock exchange: The role of the complementary space
     J. Chem. Phys. 2013 139 , 
     doi.org/10.1063/1.4819264
  5. Neese, F.
     Software update: the ORCA program system, version 4.0
     WIRES Comput. Molec. Sci. 2018 8(1), 1-6
     doi.org/10.1002/wcms.1327
  6. Neese, F.; Wennmohs, F.; Becker, U.; Riplinger, C.
     The ORCA quantum chemistry program package
     J. Chem. Phys. 2020 152(22), 224108
     doi.org/10.1063/5.0004608
  7. Neese, F.
     Software update: The ORCA program system—Version 5.0
     WIRES Comput. Molec. Sci. 2022 12(1), e1606
     doi.org/10.1002/wcms.1606

List of optional additional citations

  1. Neese, F.
     Approximate second-order SCF convergence for spin unrestricted wavefunctions
     Chem. Phys. Lett. 2000 325(1-3), 93-98
     doi.org/10.1016/s0009-2614(00)00662-x

Timings for individual modules:

Sum of individual times          ...      761.493 sec (=  12.692 min)
Startup calculation              ...       13.979 sec (=   0.233 min)   1.8 %
SCF iterations                   ...      745.526 sec (=  12.425 min)  97.9 %
Property calculations            ...        1.988 sec (=   0.033 min)   0.3 %
                             ****ORCA TERMINATED NORMALLY****
TOTAL RUN TIME: 0 days 0 hours 12 minutes 43 seconds 445 msec
