Loading openmpi/5.0.6/gcc-14.2.0
  Loading requirement: gcc/14.2.0

                                 *****************
                                 * O   R   C   A *
                                 *****************

                                            #,                                       
                                            ###                                      
                                            ####                                     
                                            #####                                    
                                            ######                                   
                                           ########,                                 
                                     ,,################,,,,,                         
                               ,,#################################,,                 
                          ,,##########################################,,             
                       ,#########################################, ''#####,          
                    ,#############################################,,   '####,        
                  ,##################################################,,,,####,       
                ,###########''''           ''''###############################       
              ,#####''   ,,,,##########,,,,          '''####'''          '####       
            ,##' ,,,,###########################,,,                        '##       
           ' ,,###''''                  '''############,,,                           
         ,,##''                                '''############,,,,        ,,,,,,###''
      ,#''                                            '''#######################'''  
     '                                                          ''''####''''         
             ,#######,   #######,   ,#######,      ##                                
            ,#'     '#,  ##    ##  ,#'     '#,    #''#        ,####,    ,#,          
            ##       ##  ##   ,#'  ##            #'  '#       #'       ,# #          
            ##       ##  #######   ##           ,######,      #####,      #          
            '#,     ,#'  ##    ##  '#,     ,#' ,#      #,     #,   #      #          
             '#######'   ##     ##  '#######'  #'      '#     '####' #    #          



                #########################################################
                #                        -***-                          #
                #          Department of theory and spectroscopy        #
                #                                                       #
                #                      Frank Neese                      #
                #                                                       #
                #     Directorship, Architecture, Infrastructure        #
                #                    SHARK, DRIVERS                     #
                #        Core code/Algorithms in most modules           #
                #                                                       #
                #        Max Planck Institute fuer Kohlenforschung      #
                #                Kaiser Wilhelm Platz 1                 #
                #                 D-45470 Muelheim/Ruhr                 #
                #                      Germany                          #
                #                                                       #
                #                  All rights reserved                  #
                #                        -***-                          #
                #########################################################


                         Program Version 6.1.0  -  RELEASE   -
                                (GIT: $679e74b$)
                          ($2025-06-10 18:02:51 +0200$)


 With contributions from (in alphabetic order):
[Max-Planck-Institut fuer Kohlenforschung]                               
  Daniel Aravena         : Magnetic Suceptibility                        
  Michael Atanasov       : Ab Initio Ligand Field Theory (pilot matlab implementation)
  Alexander A. Auer      : GIAO ZORA, VPT2 properties, NMR spectrum      
  Ute Becker             : All parallelization in ORCA, NUMFREQ, NUMCALC 
  Giovanni Bistoni       : ED, misc. LED, open-shell LED, HFLD           
  Dmytro Bykov           : pre 5.0 version of the SCF Hessian            
  Marcos Casanova-Páez   : Triplet and SCS-CIS(D). UHF-(DLPNO)-IP/EA/STEOM-CCSD. UHF-CVS-IP/STEOM-CCSD   
  Vijay G. Chilkuri      : MRCI spin determinant printing, contributions to CSF-ICE 
  Pauline Colinet        : FMM embedding                                 
  Dipayan Datta          : RHF DLPNO-CCSD density                        
  Achintya Kumar Dutta   : EOM-CC, STEOM-CC                              
  Nicolas Foglia         : Exact transition moments, OPA infrastructure, MCD improvements    
  Dmitry Ganyushin       : Spin-Orbit,Spin-Spin,Magnetic field MRCI      
  Miquel Garcia-Rates    : C-PCM and meta-GGA Hessian, CCSD/C-PCM, Gaussian charge scheme 
  Tiago L. C. Gouveia    : GS-ROHF, GS-ROCIS                             
  Yang Guo               : DLPNO-NEVPT2, F12-NEVPT2, CIM, IAO-localization        
  Andreas Hansen         : Spin unrestricted coupled pair/coupled cluster methods 
  Ingolf Harden          : AUTO-CI MPn and infrastructure                
  Benjamin Helmich-Paris : MC-RPA, TRAH-(SCF,CASSCF), AVAS, COSX integrals, SCF dyn. polar., MC-PDFT, srDFT 
  Lee Huntington         : MR-EOM, pCC                                   
  Robert Izsak           : Overlap fitted RIJCOSX, COSX-SCS-MP3, EOM     
  Riya Kayal             : Wick's Theorem for AUTO-CI, AUTO-CI UHF-CCSDT 
  Emily Kempfer          : AUTO-CI RHF CISDT and CCSDT, approximate NEVPT4
  Christian Kollmar      : KDIIS, OOCD, Brueckner-CCSD(T), CCSD density, CASPT2, CASPT2-K, improved NEVPT2 
  Axel Koslowski         : Symmetry handling                             
  Simone Kossmann        : meta-GGA functionals, TD-DFT gradient, OOMP2, (MP2 Hessian; deprecated post 5.0) 
  Lucas Lang             : DCDCAS, Hyperfine gauge corrections, ICE-SOC+SSC
  Marvin Lechner         : AUTO-CI (C++ implementation), FIC-MRCC        
  Spencer Leger          : CASSCF response                               
  Dagmar Lenk            : GEPOL surface, SMD, ORCA-2-JSON               
  Dimitrios Liakos       : Extrapolation schemes; Compound Job, Property file
  Dimitrios Manganas     : Further ROCIS development; embedding schemes. LFT, Crystal Embedding 
  Dimitrios Pantazis     : SARC Basis sets                               
  Anastasios Papadopoulos: AUTO-CI, single reference methods and gradients 
  Taras Petrenko         : pre 6.0 DFT Hessian and TD-DFT gradient,  ECA, NRVS 
  Petra Pikulova         : Analytic Raman intensities                    
  Peter Pinski           : DLPNO-MP2, DLPNO-MP2 Gradient                 
  Shashank Vittal Rao    : ES-AILFT, MagRelax                            
  Christoph Reimann      : Effective Core Potentials                     
  Marius Retegan         : Local ZFS, SOC                                
  Christoph Riplinger    : Optimizer, TS searches, QM/MM, DLPNO-CCSD(T), (RO)-DLPNO pert. Triples 
  Michael Roemelt        : Original ROCIS implementation, recursive CI coupling coefficients
  Masaaki Saitow         : Open-shell DLPNO-CCSD energy and density      
  Barbara Sandhoefer     : DKH picture change effects                    
  Yorick L. A. Schmerwitz: GMF and freeze-and-release deltaSCF, NEB S-IDPP initial path                    
  Kantharuban Sivalingam : CASSCF convergence/infrastructure, NEVPT2, NEVPT3, NEVPT4(SD), FIC-MRCI and CEPA variants
  Bernardo de Souza      : ESD, SOC TD-DFT                               
  Georgi L. Stoychev     : AutoAux, RI-MP2 NMR, DLPNO-MP2 response, X2C  
  Van Anh Tran           : RI-MP2 g-tensors                              
  Willem Van den Heuvel  : Paramagnetic NMR                              
  Zikuan Wang            : NOTCH, Electric field optimization            
  Frank Wennmohs         : Technical directorship and infrastructure     
  Hang Xu                : AUTO-CI-Response properties                   
                                                                         
[FACCTs GmbH]                                                            
  Markus Bursch, Nicolas Foglia, Miquel Garcia-Rates, Ingolf Harden, Hagen Neugebauer, Anastasios Papadopoulos, 
  Christoph Riplinger, Bernardo de Souza, Georgi L. Stoychev                                                    
                                                                 
  APM, various basis sets, CI-OPT, improved COSX, DLPNO-Multilevel,           
  DOCKER, DRACO, updates on ESD, Fragmentator, GOAT, IRC, LR-CPCM, L-BFGS, MBIS, meta-GGA TD-DFT gradient, ML-optimized integration grids, 
  MM, NACMEs, nearIR, NEB, NEB-TS, NL-DFT gradient (VV10), 2- and 3-layer-ONIOM, interface openCOSMO-RS, QMMM,   
  Crystal-QMMM, RESP, rigid body optimization, SF, symmetry and pop. for TD-DFT, various functionals, SOLVATOR                                   
                                                                         
[Other institutions]                                                     
  V. Asgeirsson          : NEB                                           
  Christoph Bannwarth    : sTDA-DFT, sTD-DFT, PBEh-3c, B97-3c, D3        
  Giovanni Bistoni       : ETS/NOCV, ADLD/ADEX, COVALED                  
  Martin Brehm           : Molecular dynamics                            
  Ronald Cardenas        : ETS/NOCV                                      
  Martina Colucci        : COVALED                                       
  Sebastian Ehlert       : rSCAN, r2SCAN, r2SCAN-3c, D4, dhf basis sets  
  Marvin Friede          : D4 for Fr, Ra, Ac-Lr                          
  Lars Goerigk           : TD-DFT with DH, B97 family of functionals     
  Stefan Grimme          : VdW corrections, initial TS optimization, DFT functionals, gCP, sTDA/sTD-DF 
  Waldemar Hujo          : DFT-NL                                        
  H. Jonsson             : NEB                                           
  Holger Kruse           : gCP                                           
  Marcel Mueller         : wB97X-3c, vDZP basis set                      
  Hagen Neugebauer       : wr2SCAN, Native XTB                           
  Gianluca Regni         : ADLD/ADEX                                     
  Tobias Risthaus        : pre 6.0 range-separated hybrid DFT and stability analysis
  Lukas Wittmann         : regularized MP2, r2SCAN double-hybrids, wr2SCAN        
                                                                         
We gratefully acknowledge several colleagues who have allowed us to      
interface, adapt or use parts of their codes:                            
  Ed Valeev, F. Pavosevic, A. Kumar             : LibInt (2-el integral package), F12 methods 
  Garnet Chan, S. Sharma, J. Yang, R. Olivares  : DMRG                   
  Ulf Ekstrom                                   : XCFun DFT Library      
  Mihaly Kallay                                 : mrcc  (arbitrary order and MRCC methods)
  Frank Weinhold                                : gennbo (NPA and NBO analysis)           
  Simon Mueller                                 : openCOSMO-RS                            
  Christopher J. Cramer and Donald G. Truhlar   : smd solvation model                     
  S Lehtola, MJT Oliveira, MAL Marques          : LibXC Library                           
  Liviu Ungur et al                             : ANISO software                          


 Your calculation uses the libint2 library for the computation of 2-el integrals
 For citations please refer to: http://libint.valeyev.net

 Your ORCA version has been built with support for libXC version: 7.0.0
 For citations please refer to: https://libxc.gitlab.io

 This ORCA versions uses:
   CBLAS   interface :  Fast vector & matrix operations
   LAPACKE interface :  Fast linear algebra routines
   SCALAPACK package :  Parallel linear algebra routines
   Shared memory     :  Shared parallel matrices
   BLAS/LAPACK       :  OpenBLAS 0.3.29  USE64BITINT DYNAMIC_ARCH NO_AFFINITY Cooperlake SINGLE_THREADED
        Core in use  :  Cooperlake
   Copyright (c) 2011-2014, The OpenBLAS Project


  ***********************************
  * Starting time: Wed May 13 14:54:46 2026
  * Host name:     node045.aire.lee.alces.network
  * Process ID:    972962
  * Working dir.:  /tmp/job.4919714
  ***********************************

NOTE: MaxCore=4000 MB was set to SCF,MP2,MDCI,CIPSI,MRCI,RASCI and CIS
      => If you want to overwrite this, your respective input block should be placed after the MaxCore statement


***************************************
The coordinates will be read from file: conf_013.xyz
***************************************


Your calculation utilizes the atom-pairwise dispersion correction
based on EEQ partial charges (D4)


================================================================================

cite the ECPs for C  [vDZP-ECP], F  [vDZP-ECP], O  [vDZP-ECP] as follows:
   B-Ne (ecp-2-mwb), Al-Ar (ecp-10-mwb), Ga-Kr (ecp-28-mwb), Y-Cd (ecp-28-mwb), In-Xe (ecp-46-mwb):
     A. Bergner, M. Dolg, W. Küchle, H. Stoll, and H. Preuß, Mol. Phys. 80, 1431 (1993)., T. Leininger, A. Berning, A. Nicklass, H. Stoll, H.-J. Werner, and H.-J.Flad, Chem. Phys. 217, 19 (1997).
   Na-Mg, K-Ca, Rb-Sr, Cs-Ba (CRENBL):
     L. Fernandez Pacios and P. A. Christiansen, J. Chem. Phys. 82, 2664 (1985)., M. M. Hurley, L. F. Pacios, P. A. Christiansen, R. B. Ross, and W. C. Ermler, J. Chem. Phys. 84, 6840 (1986)., L. A. LaJohn, P. A. Christiansen, R. B. Ross, T. Atashroo, and W. C. Ermler, J. Chem. Phys. 87, 2812 (1987)., R. B. Ross, J. M. Powers, T. Atashroo, W. C. Ermler, L. A. LaJohn, and P. A. Christiansen, J. Chem. Phys. 93, 6654 (1990). 
   Sc-Zn (ecp-10-mdf):
     M. Dolg, U. Wedig, H. Stoll, and H. Preuss, J. Chem. Phys. 86, 866 (1986). 
   Y-Cd (ecp-28-mwb), Hf-Hg (ecp-60-mwb):
     D. Andrae, U. Häußermann, M. Dolg, H. Stoll, and H. Preuß, Theor. Chim. Acta 77, 123 (1990). 
   La (ecp-46-mwb):
     M. Dolg, H. Stoll, and H. Preuss, J. Chem. Phys. 90, 1730 (1989)., M. Dolg, H. Stoll, and H. Preuss, Theor. Chim. Acta 85, 441 (1993).
   Ce-Lu (SBKJC-ecp):
     T. R. Cundari and W. J. Stevens, J. Chem. Phys. 98, 5555 (1993).
   Tl-Rn (ecp-78-mwb):
     W. Küchle, M. Dolg, H. Stoll, and H. Preuss, Mol. Phys. 74, 1245 (1991).

ECP parameters for C  [vDZP-ECP], F  [vDZP-ECP], O  [vDZP-ECP] have been obtained from:
MM, AH, SG, J. Chem. Phys. 158, 014103 (2023), 10.1063/5.0133026

----- Orbital basis set information -----
Your calculation utilizes the basis: vDZP
   Marcel Mueller, Andreas Hansen, Stefan Grimme 
   J. Chem. Phys. 158, 014103 (2023). DOI: 10.1063/5.0133026

----- AuxJ basis set information -----
Your calculation utilizes the auxiliary basis: def2/J
   H-Rn: F. Weigend, Phys. Chem. Chem. Phys. 8, 1057 (2006).
   Fr-Lr: K. Eichkorn, F. Weigend, O. Treutler, R. Ahlrichs; Theor. Chem. Acc. 97, 119 (1997).

================================================================================
                                        WARNINGS
                       Please study these warnings very carefully!
================================================================================

WARNING: Frozen-Core approximation turned on, but there are no core electrons.
  ===> : Turning off frozen-core approximation


================================================================================
                                       INPUT FILE
================================================================================
NAME = conf_013.inp
|  1> ! wb97x-3c mbis hirshfeld chelpg resp
|  2> %pal nprocs 4 end
|  3> %maxcore 4000
|  4> %method
|  5> 	   MBIS_LARGEPRINT TRUE
|  6> 	end
|  7> #conf_013
|  8> * xyzfile 0 1 conf_013.xyz
|  9> 
| 10>                          ****END OF INPUT****
================================================================================

                       ****************************
                       * Single Point Calculation *
                       ****************************

---------------------------------
CARTESIAN COORDINATES (ANGSTROEM)
---------------------------------
  C     10.530314    0.842214   -0.787857
  C      9.013354    0.971480   -0.763121
  C      8.356692   -0.254617   -0.112738
  C      6.867438   -0.104915   -0.099225
  C      6.226643    0.524963    0.960331
  C      4.858362    0.703087    0.934709
  F      4.277182    1.297587    1.993374
  C      4.055158    0.266866   -0.119545
  C      2.596889    0.459003   -0.129345
  C      1.752797   -0.584832   -0.499998
  C      0.386356   -0.391483   -0.499964
  F     -0.395780   -1.413163   -0.874994
  C     -0.196008    0.826978   -0.151819
  C     -1.670381    1.058281   -0.195577
  O     -2.187213    2.060717   -0.599660
  O     -2.311260   -0.030550    0.264867
  C     -3.683313   -0.135807    0.314840
  C     -4.543170    0.941073    0.472296
  C     -5.901079    0.692972    0.555270
  F     -6.717362    1.754114    0.689751
  C     -6.443961   -0.588225    0.483890
  C     -7.892398   -0.831086    0.564971
  C     -8.486770   -1.757280   -0.288966
  C     -9.844637   -1.997121   -0.214530
  F    -10.401148   -2.887972   -1.047480
  C    -10.643567   -1.332251    0.709627
  F    -11.957952   -1.573731    0.780236
  C    -10.039075   -0.410976    1.558366
  F    -10.785467    0.235715    2.462979
  C     -8.682631   -0.156871    1.491887
  C     -5.548078   -1.646150    0.324110
  C     -4.189221   -1.431476    0.245633
  C      0.677277    1.854544    0.206859
  F      0.176597    3.037559    0.572889
  C      2.047454    1.686396    0.231108
  C      4.732394   -0.363878   -1.163830
  F      4.031093   -0.794761   -2.228935
  C      6.100441   -0.545199   -1.170746
  H     10.977252    1.716996   -1.253265
  H     10.923746    0.752282    0.222121
  H     10.830733   -0.037711   -1.352156
  H      8.729160    1.866515   -0.206214
  H      8.636235    1.080769   -1.781866
  H      8.730051   -0.358083    0.907207
  H      8.636047   -1.147278   -0.674410
  H      6.782777    0.878082    1.814409
  H      2.143739   -1.548753   -0.783163
  H     -4.187314    1.956980    0.519702
  H     -7.907057   -2.281688   -1.031368
  H     -8.259361    0.562109    2.174128
  H     -5.930945   -2.653724    0.282493
  H     -3.498787   -2.250924    0.127973
  H      2.670154    2.517063    0.521424
  H      6.557599   -1.033840   -2.016717

----------------------------
CARTESIAN COORDINATES (A.U.)
----------------------------
  NO LB      ZA    FRAG     MASS         X           Y           Z
   0 C     4.0000*   0    12.011   19.899410    1.591554   -1.488834
   1 C     4.0000*   0    12.011   17.032771    1.835830   -1.442090
   2 C     4.0000*   0    12.011   15.791860   -0.481156   -0.213045
   3 C     4.0000*   0    12.011   12.977576   -0.198261   -0.187508
   4 C     4.0000*   0    12.011   11.766651    0.992037    1.814762
   5 C     4.0000*   0    12.011    9.180974    1.328641    1.766344
   6 F     7.0000*   0    18.998    8.082703    2.452084    3.766931
   7 C     4.0000*   0    12.011    7.663137    0.504304   -0.225906
   8 C     4.0000*   0    12.011    4.907409    0.867389   -0.244427
   9 C     4.0000*   0    12.011    3.312306   -1.105173   -0.944858
  10 C     4.0000*   0    12.011    0.730108   -0.739796   -0.944795
  11 F     7.0000*   0    18.998   -0.747917   -2.670491   -1.653500
  12 C     4.0000*   0    12.011   -0.370401    1.562763   -0.286897
  13 C     4.0000*   0    12.011   -3.156562    1.999861   -0.369588
  14 O     6.0000*   0    15.999   -4.133233    3.894192   -1.133194
  15 O     6.0000*   0    15.999   -4.367648   -0.057731    0.500526
  16 C     4.0000*   0    12.011   -6.960453   -0.256638    0.594962
  17 C     4.0000*   0    12.011   -8.585347    1.778371    0.892510
  18 C     4.0000*   0    12.011  -11.151424    1.309527    1.049308
  19 F     7.0000*   0    18.998  -12.693974    3.314796    1.303440
  20 C     4.0000*   0    12.011  -12.177321   -1.111585    0.914419
  21 C     4.0000*   0    12.011  -14.914471   -1.570525    1.067641
  22 C     4.0000*   0    12.011  -16.037672   -3.320779   -0.546066
  23 C     4.0000*   0    12.011  -18.603668   -3.774012   -0.405402
  24 F     7.0000*   0    18.998  -19.655321   -5.457475   -1.979451
  25 C     4.0000*   0    12.011  -20.113426   -2.517590    1.341000
  26 F     7.0000*   0    18.998  -22.597255   -2.973921    1.474433
  27 C     4.0000*   0    12.011  -18.971103   -0.776632    2.944886
  28 F     7.0000*   0    18.998  -20.381579    0.445437    4.654356
  29 C     4.0000*   0    12.011  -16.407795   -0.296443    2.819259
  30 C     4.0000*   0    12.011  -10.484348   -3.110772    0.612479
  31 C     4.0000*   0    12.011   -7.916480   -2.705098    0.464179
  32 C     4.0000*   0    12.011    1.279868    3.504581    0.390907
  33 F     7.0000*   0    18.998    0.333719    5.740155    1.082603
  34 C     4.0000*   0    12.011    3.869127    3.186827    0.436732
  35 C     4.0000*   0    12.011    8.942929   -0.687630   -2.199321
  36 F     7.0000*   0    18.998    7.617661   -1.501881   -4.212077
  37 C     4.0000*   0    12.011   11.528163   -1.030277   -2.212389
  38 H     1.0000    0     1.008   20.744001    3.244652   -2.368328
  39 H     1.0000    0     1.008   20.642888    1.421606    0.419748
  40 H     1.0000    0     1.008   20.467120   -0.071263   -2.555205
  41 H     1.0000    0     1.008   16.495722    3.527203   -0.389688
  42 H     1.0000    0     1.008   16.320119    2.042358   -3.367240
  43 H     1.0000    0     1.008   16.497406   -0.676679    1.714373
  44 H     1.0000    0     1.008   16.319764   -2.168042   -1.274451
  45 H     1.0000    0     1.008   12.817590    1.659335    3.428736
  46 H     1.0000    0     1.008    4.051079   -2.926720   -1.479964
  47 H     1.0000    0     1.008   -7.912877    3.698156    0.982095
  48 H     1.0000    0     1.008  -14.942172   -4.311765   -1.949002
  49 H     1.0000    0     1.008  -15.607930    1.062233    4.108506
  50 H     1.0000    0     1.008  -11.207863   -5.014812    0.533835
  51 H     1.0000    0     1.008   -6.611749   -4.253629    0.241835
  52 H     1.0000    0     1.008    5.045859    4.756559    0.985348
  53 H     1.0000    0     1.008   12.392066   -1.953675   -3.811043
* core charge reduced due to ECP

--------------------------------
INTERNAL COORDINATES (ANGSTROEM)
--------------------------------
 C      0   0   0     0.000000000000     0.00000000     0.00000000
 C      1   0   0     1.522658415204     0.00000000     0.00000000
 C      2   1   0     1.535420046444   111.41771170     0.00000000
 C      3   2   1     1.496820806508   110.45512622   179.97795744
 C      4   3   2     1.389252494081   120.74048922   271.44874895
 C      5   4   3     1.380064226609   120.11068973   177.42887597
 F      6   5   4     1.346095411038   118.06466586   178.86593326
 C      6   5   4     1.395305100386   122.98432753     0.46808233
 C      8   6   5     1.470904107876   122.33710821   179.72353850
 C      9   8   6     1.392647412548   120.31579647   225.15740635
 C     10   9   8     1.380051731407   119.67702598   179.77194542
 F     11  10   9     1.340229473052   118.10046077   179.34352945
 C     11  10   9     1.394633327997   122.40277234     0.64250503
 C     13  11  10     1.493047452252   122.70993608   177.78858153
 O     14  13  11     1.198030694282   124.43822662   221.29395759
 O     14  13  11     1.344725867605   109.58177128    40.36265620
 C     16  14  13     1.376991427874   123.31200645   181.77776550
 C     17  16  14     1.387017246607   124.22756539   330.81573971
 C     18  17  16     1.382879949939   118.44117685   182.31203832
 F     19  18  17     1.345520679055   117.40118040   180.87197051
 C     19  18  17     1.393298562573   122.99068185   359.80241153
 C     21  19  18     1.470892928298   122.18750647   180.42744477
 C     22  21  19     1.392954667906   119.74733593   137.85115368
 C     23  22  21     1.380893289987   120.13399375   179.62921436
 F     24  23  22     1.340569261740   119.34940947   179.74118155
 C     24  23  22     1.390828830094   121.17390150   359.66834407
 F     26  24  23     1.338248442295   120.86275833   180.29022397
 C     26  24  23     1.390869004627   118.19394618     0.24240031
 F     28  26  24     1.339266302757   119.32750807   180.44114991
 C     28  26  24     1.381640050376   121.27508269     0.00000000
 C     21  19  18     1.395470993146   116.92590370     0.13802311
 C     31  21  19     1.377946764309   121.43374320     0.22658385
 C     13  11  10     1.395409872707   116.50041134   359.73923831
 F     33  13  11     1.335733005965   119.21256108   181.16936002
 C     33  13  11     1.380668973080   122.40514938   359.49447325
 C      8   6   5     1.395357016373   115.30265773   359.70253823
 F     36   8   6     1.346080330169   118.94783239   181.05934109
 C     36   8   6     1.380027990374   122.97539852   359.70468816
 H      1   2   3     1.087015088361   110.38080073   179.86690129
 H      1   2   3     1.087626750580   110.62893239   299.82516900
 H      1   2   3     1.087636300938   110.62741957    59.91235715
 H      2   1   3     1.091788061890   109.70697893   120.92325555
 H      2   1   3     1.091789904921   109.72225496   239.05029399
 H      3   2   1     1.091050457457   108.98717668    59.05998304
 H      3   2   1     1.091036093372   109.01282287   300.89060976
 H      5   4   3     1.078622755512   120.96542089   357.17010263
 H     10   9   8     1.078036392401   121.35239235     0.14917787
 H     18  17  16     1.077472558090   122.16012921     3.04193977
 H     23  22  21     1.078068386790   121.07431497   358.21605095
 H     30  28  26     1.077748991213   118.54230910   180.30766484
 H     31  21  19     1.078668633911   118.99230111   178.92456362
 H     32  31  21     1.077978101641   121.29229543   179.63845042
 H     35  33  13     1.077981959302   118.95660919   180.28621479
 H     38  36   8     1.078624499530   118.92123114   180.55845734

---------------------------
INTERNAL COORDINATES (A.U.)
---------------------------
 C      0   0   0     0.000000000000     0.00000000     0.00000000
 C      1   0   0     2.877407400246     0.00000000     0.00000000
 C      2   1   0     2.901523388311   111.41771170     0.00000000
 C      3   2   1     2.828581395854   110.45512622   179.97795744
 C      4   3   2     2.625306744681   120.74048922   271.44874895
 C      5   4   3     2.607943435512   120.11068973   177.42887597
 F      6   5   4     2.543751676989   118.06466586   178.86593326
 C      6   5   4     2.636744512993   122.98432753     0.46808233
 C      8   6   5     2.779605933145   122.33710821   179.72353850
 C      9   8   6     2.631722210830   120.31579647   225.15740635
 C     10   9   8     2.607919823003   119.67702598   179.77194542
 F     11  10   9     2.532666660677   118.10046077   179.34352945
 C     11  10   9     2.635475047154   122.40277234     0.64250503
 C     13  11  10     2.821450789705   122.70993608   177.78858153
 O     14  13  11     2.263949912225   124.43822662   221.29395759
 O     14  13  11     2.541163614973   109.58177128    40.36265620
 C     16  14  13     2.602136687439   123.31200645   181.77776550
 C     17  16  14     2.621082739112   124.22756539   330.81573971
 C     18  17  16     2.613264381475   118.44117685   182.31203832
 F     19  18  17     2.542665590942   117.40118040   180.87197051
 C     19  18  17     2.632952706050   122.99068185   359.80241153
 C     21  19  18     2.779584806804   122.18750647   180.42744477
 C     22  21  19     2.632302839309   119.74733593   137.85115368
 C     23  22  21     2.609510138245   120.13399375   179.62921436
 F     24  23  22     2.533308768241   119.34940947   179.74118155
 C     24  23  22     2.628285588039   121.17390150   359.66834407
 F     26  24  23     2.528923055083   120.86275833   180.29022397
 C     26  24  23     2.628361506904   118.19394618     0.24240031
 F     28  26  24     2.530846532599   119.32750807   180.44114991
 C     28  26  24     2.610921310868   121.27508269     0.00000000
 C     21  19  18     2.637058004876   116.92590370     0.13802311
 C     31  21  19     2.603942011667   121.43374320     0.22658385
 C     13  11  10     2.636942503987   116.50041134   359.73923831
 F     33  13  11     2.524169569313   119.21256108   181.16936002
 C     33  13  11     2.609086240723   122.40514938   359.49447325
 C      8   6   5     2.636842619990   115.30265773   359.70253823
 F     36   8   6     2.543723178277   118.94783239   181.05934109
 C     36   8   6     2.607874958952   122.97539852   359.70468816
 H      1   2   3     2.054160820442   110.38080073   179.86690129
 H      1   2   3     2.055316694522   110.62893239   299.82516900
 H      1   2   3     2.055334742083   110.62741957    59.91235715
 H      2   1   3     2.063180433257   109.70697893   120.92325555
 H      2   1   3     2.063183916080   109.72225496   239.05029399
 H      3   2   1     2.061786562883   108.98717668    59.05998304
 H      3   2   1     2.061759418697   109.01282287   300.89060976
 H      5   4   3     2.038301609734   120.96542089   357.17010263
 H     10   9   8     2.037193544038   121.35239235     0.14917787
 H     18  17  16     2.036128051605   122.16012921     3.04193977
 H     23  22  21     2.037254004672   121.07431497   358.21605095
 H     30  28  26     2.036650434503   118.54230910   180.30766484
 H     31  21  19     2.038388307344   118.99230111   178.92456362
 H     32  31  21     2.037083390466   121.29229543   179.63845042
 H     35  33  13     2.037090680389   118.95660919   180.28621479
 H     38  36   8     2.038304905450   118.92123114   180.55845734

---------------------
BASIS SET INFORMATION
---------------------
There are 4 groups of distinct atoms

 Group   1 Type C   : 6s6p2d contracted to 2s2p1d pattern {42/42/2}
 Group   2 Type F   : 6s6p2d contracted to 2s2p1d pattern {42/42/2}
 Group   3 Type O   : 6s6p2d contracted to 2s2p1d pattern {42/42/2}
 Group   4 Type H   : 8s2p contracted to 2s1p pattern {53/2}

Atom   0C    basis set group =>   1
Atom   1C    basis set group =>   1
Atom   2C    basis set group =>   1
Atom   3C    basis set group =>   1
Atom   4C    basis set group =>   1
Atom   5C    basis set group =>   1
Atom   6F    basis set group =>   2
Atom   7C    basis set group =>   1
Atom   8C    basis set group =>   1
Atom   9C    basis set group =>   1
Atom  10C    basis set group =>   1
Atom  11F    basis set group =>   2
Atom  12C    basis set group =>   1
Atom  13C    basis set group =>   1
Atom  14O    basis set group =>   3
Atom  15O    basis set group =>   3
Atom  16C    basis set group =>   1
Atom  17C    basis set group =>   1
Atom  18C    basis set group =>   1
Atom  19F    basis set group =>   2
Atom  20C    basis set group =>   1
Atom  21C    basis set group =>   1
Atom  22C    basis set group =>   1
Atom  23C    basis set group =>   1
Atom  24F    basis set group =>   2
Atom  25C    basis set group =>   1
Atom  26F    basis set group =>   2
Atom  27C    basis set group =>   1
Atom  28F    basis set group =>   2
Atom  29C    basis set group =>   1
Atom  30C    basis set group =>   1
Atom  31C    basis set group =>   1
Atom  32C    basis set group =>   1
Atom  33F    basis set group =>   2
Atom  34C    basis set group =>   1
Atom  35C    basis set group =>   1
Atom  36F    basis set group =>   2
Atom  37C    basis set group =>   1
Atom  38H    basis set group =>   4
Atom  39H    basis set group =>   4
Atom  40H    basis set group =>   4
Atom  41H    basis set group =>   4
Atom  42H    basis set group =>   4
Atom  43H    basis set group =>   4
Atom  44H    basis set group =>   4
Atom  45H    basis set group =>   4
Atom  46H    basis set group =>   4
Atom  47H    basis set group =>   4
Atom  48H    basis set group =>   4
Atom  49H    basis set group =>   4
Atom  50H    basis set group =>   4
Atom  51H    basis set group =>   4
Atom  52H    basis set group =>   4
Atom  53H    basis set group =>   4
---------------------------------
AUXILIARY/J BASIS SET INFORMATION
---------------------------------
There are 4 groups of distinct atoms

 Group   1 Type C   : 12s5p4d2f1g contracted to 6s4p3d1f1g pattern {711111/2111/211/2/1}
 Group   2 Type F   : 12s5p4d2f1g contracted to 6s4p3d1f1g pattern {711111/2111/211/2/1}
 Group   3 Type O   : 12s5p4d2f1g contracted to 6s4p3d1f1g pattern {711111/2111/211/2/1}
 Group   4 Type H   : 5s2p1d contracted to 3s1p1d pattern {311/2/1}

Atom   0C    basis set group =>   1
Atom   1C    basis set group =>   1
Atom   2C    basis set group =>   1
Atom   3C    basis set group =>   1
Atom   4C    basis set group =>   1
Atom   5C    basis set group =>   1
Atom   6F    basis set group =>   2
Atom   7C    basis set group =>   1
Atom   8C    basis set group =>   1
Atom   9C    basis set group =>   1
Atom  10C    basis set group =>   1
Atom  11F    basis set group =>   2
Atom  12C    basis set group =>   1
Atom  13C    basis set group =>   1
Atom  14O    basis set group =>   3
Atom  15O    basis set group =>   3
Atom  16C    basis set group =>   1
Atom  17C    basis set group =>   1
Atom  18C    basis set group =>   1
Atom  19F    basis set group =>   2
Atom  20C    basis set group =>   1
Atom  21C    basis set group =>   1
Atom  22C    basis set group =>   1
Atom  23C    basis set group =>   1
Atom  24F    basis set group =>   2
Atom  25C    basis set group =>   1
Atom  26F    basis set group =>   2
Atom  27C    basis set group =>   1
Atom  28F    basis set group =>   2
Atom  29C    basis set group =>   1
Atom  30C    basis set group =>   1
Atom  31C    basis set group =>   1
Atom  32C    basis set group =>   1
Atom  33F    basis set group =>   2
Atom  34C    basis set group =>   1
Atom  35C    basis set group =>   1
Atom  36F    basis set group =>   2
Atom  37C    basis set group =>   1
Atom  38H    basis set group =>   4
Atom  39H    basis set group =>   4
Atom  40H    basis set group =>   4
Atom  41H    basis set group =>   4
Atom  42H    basis set group =>   4
Atom  43H    basis set group =>   4
Atom  44H    basis set group =>   4
Atom  45H    basis set group =>   4
Atom  46H    basis set group =>   4
Atom  47H    basis set group =>   4
Atom  48H    basis set group =>   4
Atom  49H    basis set group =>   4
Atom  50H    basis set group =>   4
Atom  51H    basis set group =>   4
Atom  52H    basis set group =>   4
Atom  53H    basis set group =>   4
-------------------------
ECP PARAMETER INFORMATION
-------------------------

 Group 1, Type C  ECP vDZP-ECP (replacing 2 core electrons, lmax=3)
 Group 2, Type F  ECP vDZP-ECP (replacing 2 core electrons, lmax=3)
 Group 3, Type O  ECP vDZP-ECP (replacing 2 core electrons, lmax=3)

Atom   0C    ECP group =>   1
Atom   1C    ECP group =>   1
Atom   2C    ECP group =>   1
Atom   3C    ECP group =>   1
Atom   4C    ECP group =>   1
Atom   5C    ECP group =>   1
Atom   6F    ECP group =>   2
Atom   7C    ECP group =>   1
Atom   8C    ECP group =>   1
Atom   9C    ECP group =>   1
Atom  10C    ECP group =>   1
Atom  11F    ECP group =>   2
Atom  12C    ECP group =>   1
Atom  13C    ECP group =>   1
Atom  14O    ECP group =>   3
Atom  15O    ECP group =>   3
Atom  16C    ECP group =>   1
Atom  17C    ECP group =>   1
Atom  18C    ECP group =>   1
Atom  19F    ECP group =>   2
Atom  20C    ECP group =>   1
Atom  21C    ECP group =>   1
Atom  22C    ECP group =>   1
Atom  23C    ECP group =>   1
Atom  24F    ECP group =>   2
Atom  25C    ECP group =>   1
Atom  26F    ECP group =>   2
Atom  27C    ECP group =>   1
Atom  28F    ECP group =>   2
Atom  29C    ECP group =>   1
Atom  30C    ECP group =>   1
Atom  31C    ECP group =>   1
Atom  32C    ECP group =>   1
Atom  33F    ECP group =>   2
Atom  34C    ECP group =>   1
Atom  35C    ECP group =>   1
Atom  36F    ECP group =>   2
Atom  37C    ECP group =>   1



           ************************************************************
           *        Program running with 4 parallel MPI-processes     *
           *              working on a common directory               *
           ************************************************************
------------------------------------------------------------------------------
                             ORCA STARTUP CALCULATIONS
                           -- RI-GTO INTEGRALS CHOSEN --
------------------------------------------------------------------------------
------------------------------------------------------------------------------
                   ___                                                        
                  /   \      - P O W E R E D   B Y -                         
                 /     \                                                     
                 |  |  |   _    _      __       _____    __    __             
                 |  |  |  | |  | |    /  \     |  _  \  |  |  /  |          
                  \  \/   | |  | |   /    \    | | | |  |  | /  /          
                 / \  \   | |__| |  /  /\  \   | |_| |  |  |/  /          
                |  |  |   |  __  | /  /__\  \  |    /   |      \           
                |  |  |   | |  | | |   __   |  |    \   |  |\   \          
                \     /   | |  | | |  |  |  |  | |\  \  |  | \   \       
                 \___/    |_|  |_| |__|  |__|  |_| \__\ |__|  \__/        
                                                                              
                      - O R C A' S   B I G   F R I E N D -                    
                                      &                                       
                       - I N T E G R A L  F E E D E R -                       
                                                                              
 v1 FN, 2020, v2 2021, v3 2022-2024                                           
------------------------------------------------------------------------------


----------------------
SHARK INTEGRAL PACKAGE
----------------------

Number of atoms                             ...     54
Number of basis functions                   ...    574
Number of shells                            ...    238
Maximum angular momentum                    ...      2
Integral batch strategy                     ... SHARK/LIBINT Hybrid
RI-J (if used) integral strategy            ... SPLIT-RIJ (Revised 2003 algorithm where possible)
Printlevel                                  ...      1
Contraction scheme used                     ... SEGMENTED contraction
Prescreening option                         ... SCHWARTZ
   Thresh                                   ... 1.000e-10
   Tcut                                     ... 1.000e-11
   Tpresel                                  ... 1.000e-11 
Coulomb Range Separation                    ... NOT USED
Exchange Range Separation                   ... Long Range
   Mu parameter                             ... 3.000e-01
   Scaling (regular/separated)              ... 1.670e-01 8.330e-01
Robust (split-)RI terms used:
  metric    (central integrals)             ... YES
  density   (r.h.s.  integrals)             ... YES
  potential (l.h.s.  integrals)             ... YES
Multipole approximations                    ... NOT USED
Finite Nucleus Model                        ... NOT USED
CABS basis                                  ... NOT available
Auxiliary Coulomb fitting basis             ... AVAILABLE
   # of basis functions in Aux-J            ...   2038
   # of shells in Aux-J                     ...    650
   Maximum angular momentum in Aux-J        ...      4
Auxiliary J/K fitting basis                 ... NOT available
Auxiliary Correlation fitting basis         ... NOT available
Auxiliary 'external' fitting basis          ... NOT available

done (  0.0 sec) Dimension = 238
   => SHARK Basis and OBASIS are compatible. Storing Pre-screening
Shell pair information
Shell pair cut-off parameter TPreSel        ...   1.0e-11
Total number of shell pairs                 ...     28441
Shell pairs after pre-screening             ...     18301
Total number of primitive shell pairs       ...    240572
Primitive shell pairs kept                  ...    101223
          la=0 lb=0:   3864 shell pairs
          la=1 lb=0:   6528 shell pairs
          la=1 lb=1:   2841 shell pairs
          la=2 lb=0:   2524 shell pairs
          la=2 lb=1:   2127 shell pairs
          la=2 lb=2:    417 shell pairs

Checking whether 4 symmetric matrices of dimension 574 fit in memory
:Max Core in MB      =   4000.00
 MB in use           =     36.68
 MB left             =   3963.32
 MB needed           =      5.04
 Data fit in memory  = YES
done (  0.3 sec)
Calculating Nuclear repulsion               ... done (  0.0 sec) ENN=   1923.649760650229 Eh

Diagonalization of the overlap matrix:
Smallest eigenvalue                        ... 2.264e-04
Time for diagonalization                   ...    0.060 sec
Threshold for overlap eigenvalues          ... 1.000e-07
Number of eigenvalues below threshold      ... 0
Time for construction of square roots      ...    0.033 sec
Total time needed                          ...    0.113 sec

-------------------
DFT GRID GENERATION
-------------------

General Integration Accuracy     IntAcc      ... 4.388
Radial Grid Type                 RadialGrid  ... OptM3 with GC (2021)
Angular Grid (max. ang.)         AngularGrid ... 4 (Lebedev-302)
Angular grid pruning method      GridPruning ... 4 (adaptive)
Weight generation scheme         WeightScheme... mBecke (2022)
Basis function cutoff            BFCut       ... 1.0000e-10
Integration weight cutoff        WCut        ... 1.0000e-14
Partially contracted basis set               ... off
Rotationally invariant grid construction     ... off
Angular grids for H and He will be reduced by one unit

Total number of grid points                  ...   278824
Total number of batches                      ...     4381
Average number of points per batch           ...       63
Average number of grid points per atom       ...     5163

--------------------
COSX GRID GENERATION
--------------------

GRIDX 1
-------
General Integration Accuracy     IntAcc      ... 3.816
Radial Grid Type                 RadialGrid  ... OptM3 with GC (2021)
Angular Grid (max. ang.)         AngularGrid ... 1 (Lebedev-50)
Angular grid pruning method      GridPruning ... 4 (adaptive)
Weight generation scheme         WeightScheme... mBecke (2022)
Basis function cutoff            BFCut       ... 1.0000e-10
Integration weight cutoff        WCut        ... 1.0000e-14
Partially contracted basis set               ... on
Rotationally invariant grid construction     ... off
Angular grids for H and He will be reduced by one unit

Total number of grid points                  ...    35282
Total number of batches                      ...      305
Average number of points per batch           ...      115
Average number of grid points per atom       ...      653
UseSFitting                                  ... on

GRIDX 2
-------
General Integration Accuracy     IntAcc      ... 4.020
Radial Grid Type                 RadialGrid  ... OptM3 with GC (2021)
Angular Grid (max. ang.)         AngularGrid ... 2 (Lebedev-110)
Angular grid pruning method      GridPruning ... 4 (adaptive)
Weight generation scheme         WeightScheme... mBecke (2022)
Basis function cutoff            BFCut       ... 1.0000e-10
Integration weight cutoff        WCut        ... 1.0000e-14
Partially contracted basis set               ... on
Rotationally invariant grid construction     ... off
Angular grids for H and He will be reduced by one unit

Total number of grid points                  ...    79077
Total number of batches                      ...      642
Average number of points per batch           ...      123
Average number of grid points per atom       ...     1464
UseSFitting                                  ... on

GRIDX 3
-------
General Integration Accuracy     IntAcc      ... 4.338
Radial Grid Type                 RadialGrid  ... OptM3 with GC (2021)
Angular Grid (max. ang.)         AngularGrid ... 3 (Lebedev-194)
Angular grid pruning method      GridPruning ... 4 (adaptive)
Weight generation scheme         WeightScheme... mBecke (2022)
Basis function cutoff            BFCut       ... 1.0000e-10
Integration weight cutoff        WCut        ... 1.0000e-14
Partially contracted basis set               ... on
Rotationally invariant grid construction     ... off
Angular grids for H and He will be reduced by one unit

Total number of grid points                  ...   173788
Total number of batches                      ...     1383
Average number of points per batch           ...      125
Average number of grid points per atom       ...     3218
UseSFitting                                  ... on
Grids setup in   8.8 sec
Initializing property integral containers    ... done (  0.0 sec)

SHARK setup successfully completed in  11.6 seconds

Maximum memory used throughout the entire STARTUP-calculation: 100.9 MB


           ************************************************************
           *        Program running with 4 parallel MPI-processes     *
           *              working on a common directory               *
           ************************************************************
-------------------------------------------------------------------------------
                                 ORCA GUESS
                   Start orbitals & Density for SCF / CASSCF
-------------------------------------------------------------------------------

------------
SCF SETTINGS
------------
Hamiltonian:
 Density Functional     Method          .... DFT(GTOs)
 Exchange Functional    Exchange        .... WB97X-V
 Correlation Functional Correlation     .... WB97X-V
 Gradients option       PostSCFGGA      .... off
 Hybrid DFT is turned on
   Fraction HF Exchange ScalHFX         ....  0.167000
   Scaling of DF-GGA-X  ScalDFX         ....  0.000000
   Scaling of DF-GGA-C  ScalDFC         ....  1.000000
   Scaling of DF-LDA-C  ScalLDAC        ....  1.000000
   Perturbative correction              ....  0.000000
 Long-range corrected/Screened/Range-Separated Hybrid DFT is turned on
   Amount of maximum screened exact exchange              ....  0.833000
   Range separation parameter mu (erf(mu*r12)/r12)        ....  0.300000
   NL short-range parameter             ....  6.000000
   NL long-range parameter              ....  0.010000
 RI-approximation to the Coulomb term is turned on
   Number of AuxJ basis functions       .... 2038
   RIJ-COSX (HFX calculated with COS-X)).... on


General Settings:
 Integral files         IntName         .... conf_013
 Hartree-Fock type      HFTyp           .... RHF
 Total Charge           Charge          ....    0
 Multiplicity           Mult            ....    1
 Number of Electrons    NEL             ....  196
 Basis Dimension        Dim             ....  574
 Nuclear Repulsion      ENuc            ....   1923.6497606502 Eh

Convergence Acceleration:
 AO-DIIS                CNVDIIS         .... on
   Start iteration      DIISMaxIt       ....    12
   Startup error        DIISStart       ....  0.200000
   # of expansion vecs  DIISMaxEq       ....     5
   Bias factor          DIISBfac        ....   1.050
   Max. coefficient     DIISMaxC        ....  10.000
 MO-DIIS                CNVKDIIS        .... off
 Trust-Rad. Augm. Hess. CNVTRAH         .... auto
   Auto Start mean grad. ratio tolernc. ....  1.125000
   Auto Start start iteration           ....    50
   Auto Start num. interpolation iter.  ....    10
   Max. Number of Micro iterations      ....    24
   Max. Number of Macro iterations      .... Maxiter - #DIIS iter
   Number of Davidson start vectors     ....     2
   Converg. threshold    (grad. norm)   ....   5.000e-05
   Grad. Scal. Fac. for Micro threshold ....   0.100
   Minimum threshold for Micro iter.    ....   1.000e-02
   NR start threshold (gradient norm)   ....   1.000e-04
   Initial trust radius                 ....   0.400
   Minimum AH scaling param. (alpha)    ....   1.000
   Maximum AH scaling param. (alpha)    .... 1000.000
   Quad. conv. algorithm                .... NR
   White noise on init. David. guess    .... on
   Maximum white noise                  ....   0.010
   Pseudo random numbers                .... off
   Inactive MOs                         .... canonical
   Orbital update algorithm             .... Taylor
   Preconditioner                       .... Diag
   Full preconditioner red. dimension   ....   250
 SOSCF                 CNVSOSCF           .... on
   Start iteration     SOSCFMaxIt         ....   150
   Startup grad/error  SOSCFStart         ....  0.003300
   Hessian update      SOSCFHessUp        .... L-BFGS
   Autom. constraints  SOSCFAutoConstrain .... off
 Level Shifting         CNVShift        .... on
   Level shift para.    LevelShift      ....    0.2500
   Turn off err/grad.   ShiftErr        ....    0.0010
 Zerner damping         CNVZerner       .... off
 Static damping         CNVDamp         .... on
   Fraction old density DampFac         ....    0.7000
   Max. Damping (<1)    DampMax         ....    0.9800
   Min. Damping (>=0)   DampMin         ....    0.0000
   Turn off err/grad.   DampErr         ....    0.1000

SCF Procedure:
 Maximum # iterations   MaxIter         ....   125
 SCF integral mode      SCFMode         .... Direct
   Integral package                     .... SHARK and LIBINT hybrid scheme
 Reset frequency        DirectResetFreq ....    20
 Integral Threshold     Thresh          ....  1.000e-10 Eh
 Primitive CutOff       TCut            ....  1.000e-11 Eh

Convergence Tolerance:
 Convergence Check Mode ConvCheckMode   .... Total+1el-Energy
 Convergence forced     ConvForced      .... 0
 Energy Change          TolE            ....  1.000e-06 Eh
 1-El. energy change                    ....  1.000e-03 Eh
 Orbital Gradient       TolG            ....  5.000e-05
 Orbital Rotation angle TolX            ....  5.000e-05
 DIIS Error             TolErr          ....  1.000e-06

------------------------------
INITIAL GUESS: MODEL POTENTIAL
------------------------------
Loading Hartree-Fock densities                     ... done
Atomic calculation to generate a density for atom 0 (C  with ECP)
  Multiplicity assumed   :    1
  Atomic configuration   : 1s2 2s2 2p2 
  Number of open shells  : 1
  Command: /opt/apps/pkg/applications/orca/orca_6_1_0_linux_x86-64_shared_openmpi418/orca conf_013_atom6.inp "" > conf_013_atom6.out
Returned from the atomic calculation with res=0
Atomic calculation to generate a density for atom 6 (F  with ECP)
  Multiplicity assumed   :    2
  Atomic configuration   : 1s2 2s2 2p5 
  Number of open shells  : 1
  Command: /opt/apps/pkg/applications/orca/orca_6_1_0_linux_x86-64_shared_openmpi418/orca conf_013_atom9.inp "" > conf_013_atom9.out
Returned from the atomic calculation with res=0
Atomic calculation to generate a density for atom 14 (O  with ECP)
  Multiplicity assumed   :    3
  Atomic configuration   : 1s2 2s2 2p4 
  Number of open shells  : 1
  Command: /opt/apps/pkg/applications/orca/orca_6_1_0_linux_x86-64_shared_openmpi418/orca conf_013_atom8.inp "" > conf_013_atom8.out
Returned from the atomic calculation with res=0
Calculating cut-offs                               ... done
Initializing the effective Hamiltonian             ... done
Setting up the integral package (SHARK)            ... done
done (   1.8 sec)
done (   1.7 sec)
Mapping shells                                     ... done
Starting the XC term evaluation                    ... done (   0.5 sec)
  promolecular density results
     # of electrons  =    271.986311734
     EX              =   -168.150298150
     EC              =    -11.744363267
     EX+EC           =   -179.894661417
Transforming the Hamiltonian                       ... done (   0.1 sec)
done (   0.1 sec)
Back transforming the eigenvectors                 ... done (   0.3 sec)
done
                      ------------------
                      INITIAL GUESS DONE (   8.2 sec)
                      ------------------
             **** ENERGY FILE WAS UPDATED (conf_013.en.tmp) ****
Finished Guess after  10.5 sec
Maximum memory used throughout the entire GUESS-calculation: 55.3 MB


           ************************************************************
           *        Program running with 4 parallel MPI-processes     *
           *              working on a common directory               *
           ************************************************************

-------------------------------------------------------------------------------------------
                                      ORCA LEAN-SCF
                              memory conserving SCF solver
-------------------------------------------------------------------------------------------

----------------------------------------D-I-I-S--------------------------------------------
Iteration    Energy (Eh)           Delta-E    RMSDP     MaxDP     DIISErr   Damp  Time(sec)
-------------------------------------------------------------------------------------------
               ***  Starting incremental Fock matrix formation  ***
    1    -394.3780128510566101     0.00e+00  5.82e-03  9.42e-02  2.15e-01  0.700  75.3
    2    -394.9469805868407093    -5.69e-01  4.22e-03  6.69e-02  1.13e-01  0.700  30.9
                               ***Turning on AO-DIIS***
    3    -395.2111813844535391    -2.64e-01  2.44e-03  3.46e-02  5.95e-02  0.700  29.0
    4    -395.3679769314621808    -1.57e-01  5.36e-03  7.24e-02  3.45e-02  0.000  28.1
    5    -395.7094257026878950    -3.41e-01  4.49e-04  6.89e-03  7.30e-03  0.000  32.2
    6    -395.7112378322590303    -1.81e-03  2.34e-04  4.69e-03  3.43e-03  0.000  24.8
                              *** Initializing SOSCF ***
---------------------------------------S-O-S-C-F--------------------------------------
Iteration    Energy (Eh)           Delta-E    RMSDP     MaxDP     MaxGrad    Time(sec)
--------------------------------------------------------------------------------------
    7    -395.7117486520955936    -5.11e-04  1.22e-04  3.15e-03  2.24e-03    22.3
               *** Restarting incremental Fock matrix formation ***
    8    -395.7119794925920360    -2.31e-04  7.98e-05  1.66e-03  1.25e-03    70.6
    9    -395.7120315971533273    -5.21e-05  9.56e-05  2.60e-03  5.97e-04    43.2
   10    -395.7120453058619205    -1.37e-05  3.01e-05  1.40e-03  2.82e-04    40.8
   11    -395.7120513197482978    -6.01e-06  1.09e-05  2.90e-04  4.82e-05    35.4
   12    -395.7120515226124553    -2.03e-07  4.97e-06  9.33e-05  4.62e-05    28.1
                 **** Energy Check signals convergence ****

               *****************************************************
               *                     SUCCESS                       *
               *           SCF CONVERGED AFTER  12 CYCLES          *
               *****************************************************

 done (  131.774 sec)
Old exchange energy                            :    -40.322321047 Eh
New exchange energy                            :    -40.322322054 Eh
Exchange energy change after final integration :     -0.000001007 Eh
Total energy after final integration           :   -395.712052793 Eh
             **** ENERGY FILE WAS UPDATED (conf_013.en.tmp) ****

----------------
TOTAL SCF ENERGY
----------------

Total Energy       :       -395.71205279272658 Eh          -10767.87238 eV

Components:
Nuclear Repulsion  :       1923.64976065022938 Eh           52345.17116 eV
Electronic Energy  :      -2319.36181243603642 Eh          -63113.04352 eV
One Electron Energy:      -4463.36961286726091 Eh         -121454.46179 eV
Two Electron Energy:       2144.00780043122450 Eh           58341.41827 eV

Virial components:
Potential Energy   :       -709.37624644744346 Eh          -19303.10902 eV
Kinetic Energy     :        313.66419365471683 Eh            8535.23663 eV
Virial Ratio       :          2.26157865895375

DFT components:
N(Alpha)           :       97.999879481563 electrons
N(Beta)            :       97.999879481563 electrons
N(Total)           :      195.999758963126 electrons
E(X)               :      -51.261274297931 Eh       
E(C)               :       -7.927602926870 Eh       
E(XC)              :      -59.188877224800 Eh       

---------------
SCF CONVERGENCE
---------------

  Last Energy change         ...    2.0286e-07  Tolerance :   1.0000e-06
  Last MAX-Density change    ...    9.3332e-05  Tolerance :   1.0000e-05
  Last RMS-Density change    ...    4.9738e-06  Tolerance :   1.0000e-06
  Last DIIS Error            ...    2.2386e-03  Tolerance :   1.0000e-06
  Last Orbital Gradient      ...    4.6229e-05  Tolerance :   5.0000e-05
  Last Orbital Rotation      ...    1.7441e-04  Tolerance :   5.0000e-05


----------------
ORBITAL ENERGIES
----------------

  NO   OCC          E(Eh)            E(eV) 
   0   2.0000      -1.387357       -37.7519 
   1   2.0000      -1.382412       -37.6173 
   2   2.0000      -1.380388       -37.5623 
   3   2.0000      -1.380029       -37.5525 
   4   2.0000      -1.379617       -37.5413 
   5   2.0000      -1.376292       -37.4508 
   6   2.0000      -1.370884       -37.3037 
   7   2.0000      -1.366993       -37.1978 
   8   2.0000      -1.278660       -34.7941 
   9   2.0000      -1.184367       -32.2283 
  10   2.0000      -1.060310       -28.8525 
  11   2.0000      -1.052708       -28.6456 
  12   2.0000      -1.042032       -28.3551 
  13   2.0000      -1.030227       -28.0339 
  14   2.0000      -0.985577       -26.8189 
  15   2.0000      -0.962831       -26.2000 
  16   2.0000      -0.949400       -25.8345 
  17   2.0000      -0.922308       -25.0973 
  18   2.0000      -0.921242       -25.0683 
  19   2.0000      -0.918820       -25.0024 
  20   2.0000      -0.917447       -24.9650 
  21   2.0000      -0.915738       -24.9185 
  22   2.0000      -0.898946       -24.4616 
  23   2.0000      -0.857764       -23.3409 
  24   2.0000      -0.834220       -22.7003 
  25   2.0000      -0.801007       -21.7965 
  26   2.0000      -0.795613       -21.6497 
  27   2.0000      -0.793310       -21.5871 
  28   2.0000      -0.780937       -21.2504 
  29   2.0000      -0.777664       -21.1613 
  30   2.0000      -0.768237       -20.9048 
  31   2.0000      -0.759894       -20.6778 
  32   2.0000      -0.738473       -20.0949 
  33   2.0000      -0.737641       -20.0722 
  34   2.0000      -0.713816       -19.4239 
  35   2.0000      -0.709688       -19.3116 
  36   2.0000      -0.694098       -18.8874 
  37   2.0000      -0.690443       -18.7879 
  38   2.0000      -0.685218       -18.6457 
  39   2.0000      -0.684522       -18.6268 
  40   2.0000      -0.678466       -18.4620 
  41   2.0000      -0.671491       -18.2722 
  42   2.0000      -0.663265       -18.0484 
  43   2.0000      -0.644719       -17.5437 
  44   2.0000      -0.643558       -17.5121 
  45   2.0000      -0.640105       -17.4181 
  46   2.0000      -0.639460       -17.4006 
  47   2.0000      -0.638620       -17.3777 
  48   2.0000      -0.634119       -17.2553 
  49   2.0000      -0.631095       -17.1730 
  50   2.0000      -0.622624       -16.9424 
  51   2.0000      -0.618392       -16.8273 
  52   2.0000      -0.616091       -16.7647 
  53   2.0000      -0.615161       -16.7394 
  54   2.0000      -0.611405       -16.6372 
  55   2.0000      -0.608421       -16.5560 
  56   2.0000      -0.605989       -16.4898 
  57   2.0000      -0.603898       -16.4329 
  58   2.0000      -0.598827       -16.2949 
  59   2.0000      -0.595355       -16.2004 
  60   2.0000      -0.592215       -16.1150 
  61   2.0000      -0.588313       -16.0088 
  62   2.0000      -0.585504       -15.9324 
  63   2.0000      -0.579690       -15.7742 
  64   2.0000      -0.572158       -15.5692 
  65   2.0000      -0.567407       -15.4399 
  66   2.0000      -0.554765       -15.0959 
  67   2.0000      -0.553222       -15.0539 
  68   2.0000      -0.549938       -14.9646 
  69   2.0000      -0.542363       -14.7584 
  70   2.0000      -0.536861       -14.6087 
  71   2.0000      -0.536331       -14.5943 
  72   2.0000      -0.532552       -14.4915 
  73   2.0000      -0.525528       -14.3003 
  74   2.0000      -0.520184       -14.1549 
  75   2.0000      -0.514736       -14.0067 
  76   2.0000      -0.512904       -13.9568 
  77   2.0000      -0.505296       -13.7498 
  78   2.0000      -0.502596       -13.6763 
  79   2.0000      -0.501554       -13.6480 
  80   2.0000      -0.499593       -13.5946 
  81   2.0000      -0.494198       -13.4478 
  82   2.0000      -0.490395       -13.3443 
  83   2.0000      -0.488080       -13.2813 
  84   2.0000      -0.485745       -13.2178 
  85   2.0000      -0.468598       -12.7512 
  86   2.0000      -0.464220       -12.6321 
  87   2.0000      -0.460795       -12.5389 
  88   2.0000      -0.459168       -12.4946 
  89   2.0000      -0.422568       -11.4986 
  90   2.0000      -0.401331       -10.9208 
  91   2.0000      -0.388497       -10.5715 
  92   2.0000      -0.370915       -10.0931 
  93   2.0000      -0.369920       -10.0660 
  94   2.0000      -0.369467       -10.0537 
  95   2.0000      -0.368015       -10.0142 
  96   2.0000      -0.351892        -9.5755 
  97   2.0000      -0.335781        -9.1371 
  98   0.0000      -0.010736        -0.2921 
  99   0.0000       0.016967         0.4617 
 100   0.0000       0.046589         1.2677 
 101   0.0000       0.046834         1.2744 
 102   0.0000       0.048359         1.3159 
 103   0.0000       0.048950         1.3320 
 104   0.0000       0.049795         1.3550 
 105   0.0000       0.073148         1.9905 
 106   0.0000       0.078057         2.1240 
 107   0.0000       0.081188         2.2092 
 108   0.0000       0.086149         2.3442 
*Only the first 10 virtual orbitals were printed.

                    ********************************
                    * MULLIKEN POPULATION ANALYSIS *
                    ********************************

-----------------------
MULLIKEN ATOMIC CHARGES
-----------------------
   0 C :   -0.064760
   1 C :   -0.064406
   2 C :   -0.043491
   3 C :   -0.041368
   4 C :    0.036763
   5 C :    0.199257
   6 F :   -0.227256
   7 C :   -0.129230
   8 C :   -0.085752
   9 C :    0.069985
  10 C :    0.242047
  11 F :   -0.216287
  12 C :   -0.156483
  13 C :    0.285593
  14 O :   -0.278936
  15 O :   -0.221852
  16 C :    0.063496
  17 C :    0.049875
  18 C :    0.177319
  19 F :   -0.228627
  20 C :   -0.112408
  21 C :   -0.078667
  22 C :    0.026158
  23 C :    0.173525
  24 F :   -0.217359
  25 C :    0.192865
  26 F :   -0.209535
  27 C :    0.171729
  28 F :   -0.215014
  29 C :    0.061660
  30 C :    0.045195
  31 C :    0.045861
  32 C :    0.227053
  33 F :   -0.204602
  34 C :    0.065007
  35 C :    0.198799
  36 F :   -0.227388
  37 C :    0.036717
  38 H :    0.036295
  39 H :    0.028951
  40 H :    0.028813
  41 H :    0.042232
  42 H :    0.042950
  43 H :    0.043945
  44 H :    0.043711
  45 H :    0.032385
  46 H :    0.048583
  47 H :    0.062980
  48 H :    0.043730
  49 H :    0.047923
  50 H :    0.037281
  51 H :    0.032560
  52 H :    0.049933
  53 H :    0.032246
Sum of atomic charges:   -0.0000000

--------------------------------
MULLIKEN REDUCED ORBITAL CHARGES
--------------------------------
  0 C s       :     0.937809  s :     0.937809
      pz      :     1.045761  p :     3.052686
      px      :     0.954210
      py      :     1.052715
      dz2     :     0.012448  d :     0.074265
      dxz     :     0.017112
      dyz     :     0.012296
      dx2y2   :     0.015633
      dxy     :     0.016778

  1 C s       :     1.007618  s :     1.007618
      pz      :     1.037807  p :     2.955045
      px      :     0.941718
      py      :     0.975520
      dz2     :     0.019287  d :     0.101743
      dxz     :     0.019860
      dyz     :     0.017031
      dx2y2   :     0.024368
      dxy     :     0.021197

  2 C s       :     0.968603  s :     0.968603
      pz      :     1.047318  p :     2.974447
      px      :     0.924757
      py      :     1.002373
      dz2     :     0.020676  d :     0.100441
      dxz     :     0.016736
      dyz     :     0.016829
      dx2y2   :     0.026679
      dxy     :     0.019521

  3 C s       :     1.043390  s :     1.043390
      pz      :     0.957353  p :     2.868995
      px      :     0.976737
      py      :     0.934906
      dz2     :     0.030087  d :     0.128983
      dxz     :     0.034563
      dyz     :     0.018003
      dx2y2   :     0.021047
      dxy     :     0.025283

  4 C s       :     0.960830  s :     0.960830
      pz      :     0.990823  p :     2.915395
      px      :     0.925142
      py      :     0.999430
      dz2     :     0.019480  d :     0.087012
      dxz     :     0.023240
      dyz     :     0.009966
      dx2y2   :     0.015280
      dxy     :     0.019046

  5 C s       :     1.059407  s :     1.059407
      pz      :     0.757462  p :     2.556035
      px      :     0.914566
      py      :     0.884008
      dz2     :     0.045495  d :     0.185300
      dxz     :     0.049309
      dyz     :     0.028219
      dx2y2   :     0.026537
      dxy     :     0.035741

  6 F s       :     1.886037  s :     1.886037
      pz      :     1.630728  p :     5.317598
      px      :     1.861413
      py      :     1.825457
      dz2     :     0.006425  d :     0.023620
      dxz     :     0.005891
      dyz     :     0.006158
      dx2y2   :     0.002506
      dxy     :     0.002641

  7 C s       :     0.989793  s :     0.989793
      pz      :     1.005220  p :     3.028395
      px      :     0.972021
      py      :     1.051154
      dz2     :     0.022198  d :     0.111042
      dxz     :     0.033638
      dyz     :     0.013967
      dx2y2   :     0.018301
      dxy     :     0.022937

  8 C s       :     1.015329  s :     1.015329
      pz      :     0.945948  p :     2.939813
      px      :     0.977368
      py      :     1.016497
      dz2     :     0.011885  d :     0.130610
      dxz     :     0.020468
      dyz     :     0.022723
      dx2y2   :     0.038419
      dxy     :     0.037114

  9 C s       :     0.969248  s :     0.969248
      pz      :     0.991716  p :     2.873808
      px      :     0.892863
      py      :     0.989228
      dz2     :     0.006756  d :     0.086960
      dxz     :     0.019604
      dyz     :     0.009931
      dx2y2   :     0.028924
      dxy     :     0.021744

 10 C s       :     1.058144  s :     1.058144
      pz      :     0.884165  p :     2.511646
      px      :     0.850679
      py      :     0.776802
      dz2     :     0.015492  d :     0.188163
      dxz     :     0.035031
      dyz     :     0.031891
      dx2y2   :     0.054366
      dxy     :     0.051382

 11 F s       :     1.884603  s :     1.884603
      pz      :     1.870996  p :     5.307723
      px      :     1.784065
      py      :     1.652662
      dz2     :     0.003148  d :     0.023961
      dxz     :     0.003212
      dyz     :     0.004771
      dx2y2   :     0.005347
      dxy     :     0.007483

 12 C s       :     1.011270  s :     1.011270
      pz      :     1.146703  p :     3.046307
      px      :     0.915551
      py      :     0.984053
      dz2     :     0.010445  d :     0.098906
      dxz     :     0.015524
      dyz     :     0.018203
      dx2y2   :     0.026915
      dxy     :     0.027818

 13 C s       :     1.078577  s :     1.078577
      pz      :     0.683126  p :     2.355965
      px      :     0.893384
      py      :     0.779455
      dz2     :     0.029768  d :     0.279865
      dxz     :     0.035447
      dyz     :     0.052829
      dx2y2   :     0.089406
      dxy     :     0.072414

 14 O s       :     1.762573  s :     1.762573
      pz      :     1.397966  p :     4.477527
      px      :     1.696284
      py      :     1.383277
      dz2     :     0.006071  d :     0.038836
      dxz     :     0.003876
      dyz     :     0.010432
      dx2y2   :     0.009683
      dxy     :     0.008773

 15 O s       :     1.651840  s :     1.651840
      pz      :     1.698077  p :     4.527119
      px      :     1.297553
      py      :     1.531490
      dz2     :     0.005550  d :     0.042892
      dxz     :     0.007526
      dyz     :     0.006539
      dx2y2   :     0.014393
      dxy     :     0.008884

 16 C s       :     1.040264  s :     1.040264
      pz      :     0.976807  p :     2.725078
      px      :     0.704985
      py      :     1.043286
      dz2     :     0.008225  d :     0.171161
      dxz     :     0.036666
      dyz     :     0.025960
      dx2y2   :     0.051210
      dxy     :     0.049101

 17 C s       :     0.969054  s :     0.969054
      pz      :     0.988870  p :     2.896931
      px      :     0.918671
      py      :     0.989390
      dz2     :     0.005455  d :     0.084140
      dxz     :     0.020142
      dyz     :     0.010928
      dx2y2   :     0.025266
      dxy     :     0.022349

 18 C s       :     1.060185  s :     1.060185
      pz      :     0.940507  p :     2.578444
      px      :     0.856177
      py      :     0.781760
      dz2     :     0.008699  d :     0.184052
      dxz     :     0.031797
      dyz     :     0.034106
      dx2y2   :     0.056717
      dxy     :     0.052732

 19 F s       :     1.885871  s :     1.885871
      pz      :     1.908351  p :     5.319132
      px      :     1.770938
      py      :     1.639842
      dz2     :     0.002745  d :     0.023624
      dxz     :     0.002714
      dyz     :     0.004534
      dx2y2   :     0.005510
      dxy     :     0.008120

 20 C s       :     0.993164  s :     0.993164
      pz      :     1.025998  p :     3.001022
      px      :     0.983259
      py      :     0.991764
      dz2     :     0.006635  d :     0.118222
      dxz     :     0.020471
      dyz     :     0.021838
      dx2y2   :     0.035339
      dxy     :     0.033939

 21 C s       :     0.999395  s :     0.999395
      pz      :     1.001144  p :     2.950925
      px      :     0.986275
      py      :     0.963506
      dz2     :     0.028182  d :     0.128347
      dxz     :     0.031326
      dyz     :     0.014280
      dx2y2   :     0.028918
      dxy     :     0.025641

 22 C s       :     0.968778  s :     0.968778
      pz      :     1.015934  p :     2.916143
      px      :     0.936783
      py      :     0.963427
      dz2     :     0.014877  d :     0.088920
      dxz     :     0.021950
      dyz     :     0.010917
      dx2y2   :     0.019596
      dxy     :     0.021581

 23 C s       :     1.058079  s :     1.058079
      pz      :     0.831198  p :     2.585515
      px      :     0.928581
      py      :     0.825736
      dz2     :     0.040603  d :     0.182881
      dxz     :     0.041146
      dyz     :     0.023371
      dx2y2   :     0.035455
      dxy     :     0.042307

 24 F s       :     1.888282  s :     1.888282
      pz      :     1.735984  p :     5.305223
      px      :     1.865083
      py      :     1.704156
      dz2     :     0.004827  d :     0.023854
      dxz     :     0.004151
      dyz     :     0.006413
      dx2y2   :     0.004203
      dxy     :     0.004260

 25 C s       :     1.045700  s :     1.045700
      pz      :     0.959654  p :     2.586283
      px      :     0.655705
      py      :     0.970925
      dz2     :     0.028044  d :     0.175152
      dxz     :     0.050834
      dyz     :     0.011539
      dx2y2   :     0.036147
      dxy     :     0.048589

 26 F s       :     1.888950  s :     1.888950
      pz      :     1.930874  p :     5.296164
      px      :     1.452696
      py      :     1.912594
      dz2     :     0.002871  d :     0.024421
      dxz     :     0.006184
      dyz     :     0.000353
      dx2y2   :     0.008245
      dxy     :     0.006768

 27 C s       :     1.058113  s :     1.058113
      pz      :     0.816049  p :     2.586744
      px      :     0.879867
      py      :     0.890827
      dz2     :     0.040789  d :     0.183415
      dxz     :     0.043313
      dyz     :     0.023354
      dx2y2   :     0.037985
      dxy     :     0.037973

 28 F s       :     1.888030  s :     1.888030
      pz      :     1.699430  p :     5.303066
      px      :     1.794662
      py      :     1.808974
      dz2     :     0.005498  d :     0.023917
      dxz     :     0.005947
      dyz     :     0.005001
      dx2y2   :     0.003087
      dxy     :     0.004384

 29 C s       :     0.974045  s :     0.974045
      pz      :     0.986862  p :     2.875569
      px      :     0.902821
      py      :     0.985887
      dz2     :     0.015632  d :     0.088726
      dxz     :     0.020400
      dyz     :     0.012365
      dx2y2   :     0.019408
      dxy     :     0.020921

 30 C s       :     0.982010  s :     0.982010
      pz      :     0.942798  p :     2.874739
      px      :     0.944234
      py      :     0.987708
      dz2     :     0.005416  d :     0.098056
      dxz     :     0.023729
      dyz     :     0.009305
      dx2y2   :     0.029357
      dxy     :     0.030249

 31 C s       :     0.976579  s :     0.976579
      pz      :     0.973059  p :     2.887998
      px      :     0.957592
      py      :     0.957347
      dz2     :     0.004885  d :     0.089562
      dxz     :     0.016361
      dyz     :     0.013382
      dx2y2   :     0.022529
      dxy     :     0.032405

 32 C s       :     1.064625  s :     1.064625
      pz      :     0.881967  p :     2.518802
      px      :     0.921191
      py      :     0.715644
      dz2     :     0.015477  d :     0.189521
      dxz     :     0.032720
      dyz     :     0.034689
      dx2y2   :     0.051800
      dxy     :     0.054835

 33 F s       :     1.884259  s :     1.884259
      pz      :     1.869294  p :     5.296045
      px      :     1.881536
      py      :     1.545215
      dz2     :     0.003143  d :     0.024297
      dxz     :     0.001670
      dyz     :     0.006387
      dx2y2   :     0.006679
      dxy     :     0.006419

 34 C s       :     0.970680  s :     0.970680
      pz      :     0.990347  p :     2.877486
      px      :     0.915018
      py      :     0.972121
      dz2     :     0.006662  d :     0.086827
      dxz     :     0.017748
      dyz     :     0.011784
      dx2y2   :     0.025482
      dxy     :     0.025152

 35 C s       :     1.059561  s :     1.059561
      pz      :     0.757033  p :     2.556343
      px      :     0.896391
      py      :     0.902919
      dz2     :     0.045487  d :     0.185296
      dxz     :     0.049720
      dyz     :     0.027796
      dx2y2   :     0.027148
      dxy     :     0.035145

 36 F s       :     1.885998  s :     1.885998
      pz      :     1.626847  p :     5.317768
      px      :     1.820143
      py      :     1.870778
      dz2     :     0.006520  d :     0.023622
      dxz     :     0.006874
      dyz     :     0.005182
      dx2y2   :     0.002233
      dxy     :     0.002812

 37 C s       :     0.961023  s :     0.961023
      pz      :     0.979502  p :     2.915250
      px      :     0.923191
      py      :     1.012557
      dz2     :     0.019313  d :     0.087010
      dxz     :     0.021904
      dyz     :     0.011860
      dx2y2   :     0.014776
      dxy     :     0.019158

 38 H s       :     0.918640  s :     0.918640
      pz      :     0.012941  p :     0.045065
      px      :     0.013566
      py      :     0.018558

 39 H s       :     0.926274  s :     0.926274
      pz      :     0.021266  p :     0.044775
      px      :     0.012642
      py      :     0.010867

 40 H s       :     0.926417  s :     0.926417
      pz      :     0.014012  p :     0.044770
      px      :     0.011873
      py      :     0.018884

 41 H s       :     0.914668  s :     0.914668
      pz      :     0.013165  p :     0.043101
      px      :     0.011079
      py      :     0.018857

 42 H s       :     0.913963  s :     0.913963
      pz      :     0.021357  p :     0.043087
      px      :     0.011753
      py      :     0.009977

 43 H s       :     0.911860  s :     0.911860
      pz      :     0.022110  p :     0.044195
      px      :     0.011602
      py      :     0.010483

 44 H s       :     0.912105  s :     0.912105
      pz      :     0.013584  p :     0.044184
      px      :     0.010796
      py      :     0.019805

 45 H s       :     0.916312  s :     0.916312
      pz      :     0.021636  p :     0.051303
      px      :     0.014008
      py      :     0.015660

 46 H s       :     0.899122  s :     0.899122
      pz      :     0.015679  p :     0.052294
      px      :     0.012310
      py      :     0.024306

 47 H s       :     0.881910  s :     0.881910
      pz      :     0.014331  p :     0.055109
      px      :     0.013780
      py      :     0.026998

 48 H s       :     0.903771  s :     0.903771
      pz      :     0.020678  p :     0.052499
      px      :     0.015324
      py      :     0.016497

 49 H s       :     0.899764  s :     0.899764
      pz      :     0.018691  p :     0.052313
      px      :     0.012902
      py      :     0.020719

 50 H s       :     0.911246  s :     0.911246
      pz      :     0.014392  p :     0.051472
      px      :     0.012498
      py      :     0.024583

 51 H s       :     0.916325  s :     0.916325
      pz      :     0.014954  p :     0.051115
      px      :     0.016959
      py      :     0.019202

 52 H s       :     0.897902  s :     0.897902
      pz      :     0.015666  p :     0.052165
      px      :     0.015913
      py      :     0.020586

 53 H s       :     0.916459  s :     0.916459
      pz      :     0.021408  p :     0.051295
      px      :     0.012462
      py      :     0.017425



                     *******************************
                     * LOEWDIN POPULATION ANALYSIS *
                     *******************************

----------------------
LOEWDIN ATOMIC CHARGES
----------------------
   0 C :   -0.110651
   1 C :   -0.079662
   2 C :   -0.071124
   3 C :   -0.017554
   4 C :   -0.031361
   5 C :    0.048137
   6 F :   -0.066379
   7 C :   -0.038137
   8 C :   -0.016905
   9 C :   -0.016686
  10 C :    0.052678
  11 F :   -0.059807
  12 C :   -0.030741
  13 C :   -0.026925
  14 O :   -0.095646
  15 O :    0.034119
  16 C :   -0.008953
  17 C :   -0.010092
  18 C :    0.045457
  19 F :   -0.066753
  20 C :   -0.039715
  21 C :   -0.031652
  22 C :   -0.021790
  23 C :    0.037269
  24 F :   -0.062664
  25 C :    0.038311
  26 F :   -0.056039
  27 C :    0.038678
  28 F :   -0.060383
  29 C :   -0.012839
  30 C :   -0.017433
  31 C :   -0.028891
  32 C :    0.056562
  33 F :   -0.049427
  34 C :   -0.015119
  35 C :    0.048107
  36 F :   -0.066419
  37 C :   -0.031400
  38 H :    0.046594
  39 H :    0.043142
  40 H :    0.043137
  41 H :    0.045727
  42 H :    0.045935
  43 H :    0.053431
  44 H :    0.053333
  45 H :    0.054185
  46 H :    0.058706
  47 H :    0.057843
  48 H :    0.056654
  49 H :    0.059006
  50 H :    0.054899
  51 H :    0.055786
  52 H :    0.059296
  53 H :    0.054155

-------------------------------
LOEWDIN REDUCED ORBITAL CHARGES
-------------------------------
  0 C s       :     0.766785  s :     0.766785
      pz      :     1.067106  p :     3.098548
      px      :     0.964427
      py      :     1.067015
      dz2     :     0.039977  d :     0.245319
      dxz     :     0.059203
      dyz     :     0.040352
      dx2y2   :     0.049178
      dxy     :     0.056609

[...]
  28 F       0.094099     -0.097017     -0.067404      0.026229      0.036227     -0.000049     -0.092957     -0.066087      0.009234      0.065994
  29 C       0.575342     -0.101398      0.073843      0.213694      0.190317     -0.081297     -0.143891     -0.160041      0.076576      0.072530
  30 C      -0.409068     -0.171370      0.065540     -0.256123      0.059273      0.290924      0.080995     -0.025159     -0.033113      0.072844
  31 C       0.537093     -0.568969      0.051557      0.156634     -0.012172     -0.268725     -0.025840     -0.027235     -0.025093      0.041150
  32 C      -0.433627      0.094462      0.041608      0.192742      0.053318      0.212909      0.092417     -0.052907     -0.023037      0.067095
  33 F       0.006955      0.088152     -0.090915     -0.015423     -0.008966     -0.124030     -0.041550      0.013076      0.078740     -0.058774
  34 C       0.686658      0.269236     -0.161893      0.022228     -0.043979     -0.245238     -0.091962     -0.031292      0.105274     -0.010108
  35 C      -0.516981     -0.072622     -0.185155      0.045111     -0.057106     -0.036941      0.141420      0.177208     -0.116541     -0.042781
  36 F      -0.017816      0.117875      0.008362      0.001500     -0.033194      0.006171     -0.068573     -0.118634      0.044820     -0.060281
  37 C       0.529598      0.066304     -0.073108     -0.136174     -0.169445     -0.020280     -0.109893     -0.255320      0.055510     -0.096422
  38 H       0.006408      0.056125     -0.033440      0.016526     -0.009760     -0.006472     -0.000938     -0.008946     -0.002929      0.020329
  39 H       0.000419      0.000577      0.049478     -0.002163      0.017059     -0.010835     -0.001200     -0.006797      0.024160      0.002407
  40 H      -0.004380     -0.042273     -0.037378     -0.015236     -0.010369     -0.008174      0.001910     -0.013150     -0.005029     -0.013657
  41 H      -0.010999      0.027137      0.056164      0.011552      0.018424      0.004227     -0.001818      0.004730      0.011089      0.007081
  42 H      -0.017759     -0.024757     -0.045799     -0.006656     -0.018648      0.003591     -0.000573      0.001559     -0.023311     -0.008973
  43 H       0.016730      0.023977      0.040895      0.004174      0.014062     -0.001553      0.002043      0.001001      0.021113      0.007022
  44 H       0.011765     -0.025444     -0.051467     -0.009269     -0.012960     -0.003250      0.002237     -0.001463     -0.010476     -0.005429
  45 H       0.034378      0.011193      0.032844      0.005937      0.011577      0.007553     -0.000414      0.009050      0.010991      0.006346
  46 H       0.032617     -0.041963     -0.009134     -0.016732     -0.002292      0.008720     -0.000079      0.006648     -0.005527     -0.012639
  47 H       0.020918      0.051888     -0.003472      0.017092      0.001504      0.007377     -0.000585      0.004462     -0.001854      0.015108
  48 H       0.034665     -0.015305     -0.035126     -0.003833     -0.015977      0.009617      0.000363      0.009890     -0.013491     -0.006758
  49 H       0.033330      0.030463      0.027967      0.012032      0.011448      0.007457      0.000953      0.007212      0.011580      0.011831
  50 H      -0.025745     -0.053239      0.004860     -0.022652      0.003663     -0.004420      0.000884     -0.006440     -0.000361     -0.013983
  51 H       0.033803     -0.044963     -0.004223     -0.011742     -0.001932      0.007394      0.000056      0.009089     -0.002262     -0.010120
  52 H       0.043557      0.035020      0.009155      0.012038      0.002767      0.011030      0.000767      0.009537      0.005367      0.010772
  53 H       0.030144     -0.016773     -0.033546     -0.005943     -0.013551      0.007701      0.000491      0.006794     -0.010231     -0.008082

 MBIS THIRD RADIAL MOMENT (A.U.):
  ATOM      <r^3>
   0 C   44.309902
   1 C   40.812216
   2 C   41.890258
   3 C   33.501431
   4 C   41.050685
   5 C   29.787563
   6 F   18.090973
   7 C   38.849957
   8 C   32.193038
   9 C   40.518178
  10 C   28.923010
  11 F   18.105696
  12 C   41.932726
  13 C   22.270170
  14 O   25.733424
  15 O   23.927735
  16 C   29.521032
  17 C   41.279085
  18 C   29.752116
  19 F   18.096301
  20 C   37.138131
  21 C   33.502905
  22 C   39.953656
  23 C   31.653808
  24 F   18.110407
  25 C   33.828402
  26 F   17.902604
  27 C   31.608383
  28 F   18.089170
  29 C   39.660600
  30 C   36.597938
  31 C   39.771574
  32 C   28.768505
  33 F   18.087898
  34 C   40.445029
  35 C   29.783286
  36 F   18.089669
  37 C   41.051378
  38 H    2.352637
  39 H    2.379469
  40 H    2.379513
  41 H    2.286890
  42 H    2.284525
  43 H    2.212083
  44 H    2.213041
  45 H    2.016890
  46 H    1.913776
  47 H    1.793106
  48 H    1.972718
  49 H    1.923403
  50 H    2.133227
  51 H    2.044297
  52 H    1.907653
  53 H    2.017178

-------------------------
RESP CHARGES GENERATION
-------------------------
Number of atoms                    ...           54
Number of "pure atoms"             ...           54
Grid spacing                       ...     0.300000
Point Cut-Off                      ...     2.800000
Van-der-Waals Radii                ...        COSMO
Total charge                       ...            0
Penalty function                   ... hyperbolic
Penalty function wa                ... 0.000500
Penalty function wb                ... 0.100000
Dipole moment constraint           ...        FALSE
Equivalent atom charge constraint  ...        FALSE

Grid generated                     ...      0.0 sec
Grid points                        ...        28358
Potential calculated               ...     10.6 sec
RespFile stored                    ...           ok

Iter     dqmax
--------------

0     0.939209
1     0.038646
2     0.004795
3     0.000629
4     0.000083
5     0.000011
6     0.000001
7     0.000000

Charges calculated                 ...      1.6 sec

RESP Charges            
--------------------------------
  0   C   :      -0.451127
  1   C   :       0.257967
  2   C   :      -0.091056
  3   C   :       0.110329
  4   C   :      -0.417156
  5   C   :       0.360806
  6   F   :      -0.200771
  7   C   :      -0.262609
  8   C   :       0.408731
  9   C   :      -0.508253
 10   C   :       0.501394
 11   F   :      -0.212820
 12   C   :      -0.579946
 13   C   :       0.932256
 14   O   :      -0.534209
 15   O   :      -0.401945
 16   C   :       0.421141
 17   C   :      -0.510017
 18   C   :       0.363547
 19   F   :      -0.197956
 20   C   :       0.003287
 21   C   :       0.155779
 22   C   :      -0.429214
 23   C   :       0.308716
 24   F   :      -0.184459
 25   C   :       0.090081
 26   F   :      -0.149966
 27   C   :       0.327380
 28   F   :      -0.185694
 29   C   :      -0.436363
 30   C   :      -0.219599
 31   C   :      -0.310747
 32   C   :       0.528510
 33   F   :      -0.213113
 34   C   :      -0.520430
 35   C   :       0.365701
 36   F   :      -0.201589
 37   C   :      -0.420600
 38   H   :       0.110038
 39   H   :       0.105779
 40   H   :       0.105328
 41   H   :      -0.017681
 42   H   :      -0.016935
 43   H   :       0.059477
 44   H   :       0.059649
 45   H   :       0.225736
 46   H   :       0.244466
 47   H   :       0.274842
 48   H   :       0.236531
 49   H   :       0.243350
 50   H   :       0.189609
 51   H   :       0.210212
 52   H   :       0.247869
 53   H   :       0.225744
--------------------------------
Total charge:     0.000000
--------------------------------

RESP charges calculated...

Timings:
Grid generation                 ...        0.022 sec (=   0.000 min)
Potential calculation           ...       10.552 sec (=   0.176 min)
Fit to the potential            ...        1.616 sec (=   0.027 min)
------------------------------------------------------------------------------

-------
TIMINGS
-------

Total SCF time: 0 days 0 hours 12 min 19 sec 

Total time                  ....     739.275 sec
Sum of individual times     ....     716.554 sec  ( 96.9%)

SCF preparation             ....       3.699 sec  (  0.5%)
Fock matrix formation       ....     587.798 sec  ( 79.5%)
  Startup                   ....       0.078 sec  (  0.0% of F)
  Split-RI-J                ....      45.814 sec  (  7.8% of F)
  Chain of spheres X        ....     544.597 sec  ( 92.7% of F)
  XC integration            ....      18.807 sec  (  3.2% of F)
    XC Preparation          ....       0.000 sec  (  0.0% of XC)
    Basis function eval.    ....       4.800 sec  ( 25.5% of XC)
    Density eval.           ....       4.098 sec  ( 21.8% of XC)
    XC-Functional eval.     ....       1.168 sec  (  6.2% of XC)
    XC-Potential eval.      ....       5.014 sec  ( 26.7% of XC)
Diagonalization             ....       0.000 sec  (  0.0%)
Density matrix formation    ....       0.594 sec  (  0.1%)
Total Energy calculation    ....       0.379 sec  (  0.1%)
Population analysis         ....     119.998 sec  ( 16.2%)
Orbital Transformation      ....       0.474 sec  (  0.1%)
Orbital Orthonormalization  ....       0.000 sec  (  0.0%)
DIIS solution               ....       2.580 sec  (  0.3%)
SOSCF solution              ....       1.032 sec  (  0.1%)
Finished LeanSCF after 739.3 sec

Maximum memory used throughout the entire LEANSCF-calculation: 117.0 MB


-------------------------------------------------------------------------------
                          DFT DISPERSION CORRECTION                            
                                                                               
                                DFTD4 V3.4.0                                   
-------------------------------------------------------------------------------
The wB97X-3c composite method is recognized
Using three-body term ABC
Active option DFTDOPT                   ...         5   

-------------------------   ----------------
Dispersion correction           -0.087662460
-------------------------   ----------------


-------------------------   --------------------
FINAL SINGLE POINT ENERGY      -395.799715253048
-------------------------   --------------------



           ************************************************************
           *        Program running with 4 parallel MPI-processes     *
           *              working on a common directory               *
           ************************************************************

------------------------------------------------------------------------------
                              ORCA PROPERTY CALCULATIONS
------------------------------------------------------------------------------

GBWName                                 ... conf_013.gbw
Number of atoms                         ...     54
Number of basis functions               ...    574
Max core memory                         ...   4000 MB

Electric properties:
Dipole moment                           ... YES
Quadrupole moment                       ...  NO
Static polarizability (Dipole/Dipole)   ...  NO
Static polarizability (Dipole/Quad.)    ...  NO
Static polarizability (Quad./Quad.)     ...  NO
Static polarizability (Velocity)        ...  NO
Static hyperpolarizability              ...  NO

Atomic electric properties:
Dipole moment                           ...  NO
Quadrupole moment                       ...  NO
Static polarizability                   ...  NO

Choice of electric origin               ... Center of mass
Position of electric origin             ...    -3.009505     0.019310     0.250154

General magnetic properties:
Magnetizability                         ...  NO

EPR properties:
g-Tensor (aka g-matrix)                 ...  NO
Zero-Field splitting spin-orbit         ...  NO
Zero-field splitting spin-spin          ...  NO
Hyperfine couplings                     ...  NO (   0 nuclei)
Quadrupole couplings                    ...  NO (   0 nuclei)
Contact density                         ...  NO (   0 nuclei)

NMR properties:
Chemical shifts                         ...  NO (   0 nuclei)
Spin-rotation constants                 ...  NO (   0 nuclei)
Spin-spin couplings                     ...  NO (   0 nuclei,    0 pairs)

Choice of magnetic origin               ... GIAO
Position of magnetic origin             ...     0.000000     0.000000     0.000000

Properties with geometric perturbations:
SCF Hessian                             ...  NO
IR spectrum                             ...  NO
VCD spectrum                            ...  NO
X-ray spectroscopy properties:
SCF XES/XAS/RIXS spectra                ...  NO

SCF SOC stabilization energy            ...  NO
Diagonal Born-Oppenheimer correction    ...  NO

-------------
DIPOLE MOMENT
-------------

Method             : SCF
Type of density    : Electron Density
Multiplicity       :   1
Irrep              :   0
Energy             :  -395.7120527927265812 Eh
Basis              : AO
                                X                 Y                 Z
Electronic contribution:    -72.232466902      -2.707513921       5.041461734
Nuclear contribution   :     76.202202551       1.827658309      -4.956356516
                        -----------------------------------------
Total Dipole Moment    :      3.969735649      -0.879855612       0.085105218
                        -----------------------------------------
Magnitude (a.u.)       :      4.066963231
Magnitude (Debye)      :     10.337399006



--------------------
Rotational spectrum 
--------------------
 
Rotational constants in cm-1:             0.013417             0.000749             0.000726 
Rotational constants in MHz :           402.227809            22.440587            21.755389 

Dipole components along the rotational axes: 
x,y,z [a.u.] :    -3.868033    -0.900629     0.876002 
x,y,z [Debye]:    -9.831758    -2.289217     2.226620 

 

Dipole moment calculation done in   0.0 sec 

Maximum memory used throughout the entire PROP-calculation: 57.6 MB

--------------------------------
SUGGESTED CITATIONS FOR THIS RUN
--------------------------------

Below you find a list of papers that are relevant to this ORCA run
We neither can nor want to force you to cite these papers, but we appreciate if you do
You receive ORCA, which is the product of decades of hard work by many enthusiastic individuals, for free
The only thing we kindly ask in return is that you cite our papers,
We deeply appreciate it, if you show your appreciation for ORCA by not just citing the generic ORCA reference.

Please note that relegating all ORCA citations to the supporting information does *not* help us.
SI sections are not indexed - citations you put there will not count into any citation statistics
But we need these citations in order to attract the funding resources that allow us to do what we are doing

Therefore, if you are a happy ORCA user, please consider citing a few of the papers listed below in the main body of your paper

In addition to the list printed below, the program has created the file conf_013.bibtex that contains the list in bibtex format
You can import this file easily into all common literature databanks and citation aid programs


List of essential papers. We consider these as the minimum necessary citations

  1. Mueller, M.; Hansen, A.; Grimme, S.
     wB97X-3c: A composite range-separated hybrid DFT method with a molecule-optimized polarized valence double-zeta basis set
     J. Chem. Phys. 2023 158 , 014103
     doi.org/10.1063/5.0133026
  2. Neese, F.
     Software update: the ORCA program system, version 6.0
     WIRES Comput. Molec. Sci. 2025 15(1), e70019
     doi.org/10.1002/wcms.7019

List of papers to cite with high priority. The work reported in these papers was absolutely
necessary for this run to complete.
Our perspective: the developers of density functionals and basis sets usually get cited in chemistry papers
Good! But without the algorithms to do something with them, the functionals or basis sets would not do anything.
Hence, in our opinion, the algorithm design and method developments papers are equally worthy of getting cited

  1. Neese, F.
     An improvement of the resolution of the identity approximation for the formation of the Coulomb matrix
     J. Comp. Chem. 2003 24(14), 1740-1747
     doi.org/10.1002/jcc.10318
  2. Neese, F.; Wennmohs, F.; Hansen, A.; Becker, U.
     Efficient, approximate and parallel Hartree-Fock and hybrid DFT calculations. A 'chain-of-spheres' algorithm for the Hartree-Fock exchange
     Chem. Phys. 2009 356(1-3), 98-109
     doi.org/10.1016/j.chemphys.2008.10.036
  3. Caldeweyher, E.; Bannwarth, C.; Grimme, S.
     Extension of the D3 dispersion coefficient model
     J. Chem. Phys. 2017 147 , 034112
     doi.org/10.1063/1.4993215
  4. Caldeweyher, E.; Ehlert, S.; Hansen, A.; Neugebauer, H.; Spicher, S.; Bannwarth, C.; Grimme, S.
     A generally applicable atomic-charge dependent London dispersion correction
     J. Chem. Phys. 2019 150 , 154122
     doi.org/10.1063/1.5090222
  5. Caldeweyher, E.; Mewes, J.; Ehlert, S.; Grimme, S.
     Extension and evaluation of the D4 London-dispersion model for periodic systems
     Phys. Chem. Chem. Phys. 2020 22(16), 8499-8512
     doi.org/10.1039/D0CP00502A
  6. Helmich-Paris, B.; de Souza, B.; Neese, F.; Izsák, R.
     An improved chain of spheres for exchange algorithm
     J. Chem. Phys. 2021 155(10), 104109
     doi.org/10.1063/5.0058766
  7. Neese, F.
     The SHARK Integral Generation and Digestion System
     J. Comp. Chem. 2022 44(3), 381
     doi.org/10.1002/jcc.26942
  8. Wittmann, L.; Gordiy, I.; Friede, M.; Helmich-Paris, B.; Grimme, S.; Hansen, A.; Bursch, M.
     Extension of the D3 and D4 London Dispersion Corrections to the full Actinides Series
     Phys. Chem. Chem. Phys. 2024 26(32), 21379-21394
     doi.org/10.1039/D4CP01514B

List of suggested additional citations. These are papers that are important in the 'surrounding' of 
of this run, or papers that preceded the highly important papers. If you like your results we are grateful for a citation.

  1. Izsak, R.; Neese, F.
     An overlap fitted chain of spheres exchange method
     J. Chem. Phys. 2011 135 , 144105
     doi.org/10.1063/1.3646921
  2. Izsak, R.; Hansen, A.; Neese, F.
     The resolution of identity and chain of spheres approximations for the LPNO-CCSD singles Fock term
     Molec. Phys. 2012 110 , 2413-2417
     doi.org/10.1080/00268976.2012.687466
  3. Neese, F.
     The ORCA program system
     WIRES Comput. Molec. Sci. 2012 2(1), 73-78
     doi.org/10.1002/wcms.81
  4. Izsak, R.; Neese, F.; Klopper, W.
     Robust fitting techniques in the chain of spheres approximation to the Fock exchange: The role of the complementary space
     J. Chem. Phys. 2013 139 , 
     doi.org/10.1063/1.4819264
  5. Neese, F.
     Software update: the ORCA program system, version 4.0
     WIRES Comput. Molec. Sci. 2018 8(1), 1-6
     doi.org/10.1002/wcms.1327
  6. Neese, F.; Wennmohs, F.; Becker, U.; Riplinger, C.
     The ORCA quantum chemistry program package
     J. Chem. Phys. 2020 152(22), 224108
     doi.org/10.1063/5.0004608
  7. Neese, F.
     Software update: The ORCA program system—Version 5.0
     WIRES Comput. Molec. Sci. 2022 12(1), e1606
     doi.org/10.1002/wcms.1606

List of optional additional citations

  1. Neese, F.
     Approximate second-order SCF convergence for spin unrestricted wavefunctions
     Chem. Phys. Lett. 2000 325(1-3), 93-98
     doi.org/10.1016/s0009-2614(00)00662-x

Timings for individual modules:

Sum of individual times          ...      766.526 sec (=  12.775 min)
Startup calculation              ...       13.731 sec (=   0.229 min)   1.8 %
SCF iterations                   ...      750.841 sec (=  12.514 min)  98.0 %
Property calculations            ...        1.953 sec (=   0.033 min)   0.3 %
                             ****ORCA TERMINATED NORMALLY****
TOTAL RUN TIME: 0 days 0 hours 12 minutes 48 seconds 437 msec
