Loading openmpi/5.0.6/gcc-14.2.0
  Loading requirement: gcc/14.2.0

                                 *****************
                                 * O   R   C   A *
                                 *****************

                                            #,                                       
                                            ###                                      
                                            ####                                     
                                            #####                                    
                                            ######                                   
                                           ########,                                 
                                     ,,################,,,,,                         
                               ,,#################################,,                 
                          ,,##########################################,,             
                       ,#########################################, ''#####,          
                    ,#############################################,,   '####,        
                  ,##################################################,,,,####,       
                ,###########''''           ''''###############################       
              ,#####''   ,,,,##########,,,,          '''####'''          '####       
            ,##' ,,,,###########################,,,                        '##       
           ' ,,###''''                  '''############,,,                           
         ,,##''                                '''############,,,,        ,,,,,,###''
      ,#''                                            '''#######################'''  
     '                                                          ''''####''''         
             ,#######,   #######,   ,#######,      ##                                
            ,#'     '#,  ##    ##  ,#'     '#,    #''#        ,####,    ,#,          
            ##       ##  ##   ,#'  ##            #'  '#       #'       ,# #          
            ##       ##  #######   ##           ,######,      #####,      #          
            '#,     ,#'  ##    ##  '#,     ,#' ,#      #,     #,   #      #          
             '#######'   ##     ##  '#######'  #'      '#     '####' #    #          



                #########################################################
                #                        -***-                          #
                #          Department of theory and spectroscopy        #
                #                                                       #
                #                      Frank Neese                      #
                #                                                       #
                #     Directorship, Architecture, Infrastructure        #
                #                    SHARK, DRIVERS                     #
                #        Core code/Algorithms in most modules           #
                #                                                       #
                #        Max Planck Institute fuer Kohlenforschung      #
                #                Kaiser Wilhelm Platz 1                 #
                #                 D-45470 Muelheim/Ruhr                 #
                #                      Germany                          #
                #                                                       #
                #                  All rights reserved                  #
                #                        -***-                          #
                #########################################################


                         Program Version 6.1.0  -  RELEASE   -
                                (GIT: $679e74b$)
                          ($2025-06-10 18:02:51 +0200$)


 With contributions from (in alphabetic order):
[Max-Planck-Institut fuer Kohlenforschung]                               
  Daniel Aravena         : Magnetic Suceptibility                        
  Michael Atanasov       : Ab Initio Ligand Field Theory (pilot matlab implementation)
  Alexander A. Auer      : GIAO ZORA, VPT2 properties, NMR spectrum      
  Ute Becker             : All parallelization in ORCA, NUMFREQ, NUMCALC 
  Giovanni Bistoni       : ED, misc. LED, open-shell LED, HFLD           
  Dmytro Bykov           : pre 5.0 version of the SCF Hessian            
  Marcos Casanova-Páez   : Triplet and SCS-CIS(D). UHF-(DLPNO)-IP/EA/STEOM-CCSD. UHF-CVS-IP/STEOM-CCSD   
  Vijay G. Chilkuri      : MRCI spin determinant printing, contributions to CSF-ICE 
  Pauline Colinet        : FMM embedding                                 
  Dipayan Datta          : RHF DLPNO-CCSD density                        
  Achintya Kumar Dutta   : EOM-CC, STEOM-CC                              
  Nicolas Foglia         : Exact transition moments, OPA infrastructure, MCD improvements    
  Dmitry Ganyushin       : Spin-Orbit,Spin-Spin,Magnetic field MRCI      
  Miquel Garcia-Rates    : C-PCM and meta-GGA Hessian, CCSD/C-PCM, Gaussian charge scheme 
  Tiago L. C. Gouveia    : GS-ROHF, GS-ROCIS                             
  Yang Guo               : DLPNO-NEVPT2, F12-NEVPT2, CIM, IAO-localization        
  Andreas Hansen         : Spin unrestricted coupled pair/coupled cluster methods 
  Ingolf Harden          : AUTO-CI MPn and infrastructure                
  Benjamin Helmich-Paris : MC-RPA, TRAH-(SCF,CASSCF), AVAS, COSX integrals, SCF dyn. polar., MC-PDFT, srDFT 
  Lee Huntington         : MR-EOM, pCC                                   
  Robert Izsak           : Overlap fitted RIJCOSX, COSX-SCS-MP3, EOM     
  Riya Kayal             : Wick's Theorem for AUTO-CI, AUTO-CI UHF-CCSDT 
  Emily Kempfer          : AUTO-CI RHF CISDT and CCSDT, approximate NEVPT4
  Christian Kollmar      : KDIIS, OOCD, Brueckner-CCSD(T), CCSD density, CASPT2, CASPT2-K, improved NEVPT2 
  Axel Koslowski         : Symmetry handling                             
  Simone Kossmann        : meta-GGA functionals, TD-DFT gradient, OOMP2, (MP2 Hessian; deprecated post 5.0) 
  Lucas Lang             : DCDCAS, Hyperfine gauge corrections, ICE-SOC+SSC
  Marvin Lechner         : AUTO-CI (C++ implementation), FIC-MRCC        
  Spencer Leger          : CASSCF response                               
  Dagmar Lenk            : GEPOL surface, SMD, ORCA-2-JSON               
  Dimitrios Liakos       : Extrapolation schemes; Compound Job, Property file
  Dimitrios Manganas     : Further ROCIS development; embedding schemes. LFT, Crystal Embedding 
  Dimitrios Pantazis     : SARC Basis sets                               
  Anastasios Papadopoulos: AUTO-CI, single reference methods and gradients 
  Taras Petrenko         : pre 6.0 DFT Hessian and TD-DFT gradient,  ECA, NRVS 
  Petra Pikulova         : Analytic Raman intensities                    
  Peter Pinski           : DLPNO-MP2, DLPNO-MP2 Gradient                 
  Shashank Vittal Rao    : ES-AILFT, MagRelax                            
  Christoph Reimann      : Effective Core Potentials                     
  Marius Retegan         : Local ZFS, SOC                                
  Christoph Riplinger    : Optimizer, TS searches, QM/MM, DLPNO-CCSD(T), (RO)-DLPNO pert. Triples 
  Michael Roemelt        : Original ROCIS implementation, recursive CI coupling coefficients
  Masaaki Saitow         : Open-shell DLPNO-CCSD energy and density      
  Barbara Sandhoefer     : DKH picture change effects                    
  Yorick L. A. Schmerwitz: GMF and freeze-and-release deltaSCF, NEB S-IDPP initial path                    
  Kantharuban Sivalingam : CASSCF convergence/infrastructure, NEVPT2, NEVPT3, NEVPT4(SD), FIC-MRCI and CEPA variants
  Bernardo de Souza      : ESD, SOC TD-DFT                               
  Georgi L. Stoychev     : AutoAux, RI-MP2 NMR, DLPNO-MP2 response, X2C  
  Van Anh Tran           : RI-MP2 g-tensors                              
  Willem Van den Heuvel  : Paramagnetic NMR                              
  Zikuan Wang            : NOTCH, Electric field optimization            
  Frank Wennmohs         : Technical directorship and infrastructure     
  Hang Xu                : AUTO-CI-Response properties                   
                                                                         
[FACCTs GmbH]                                                            
  Markus Bursch, Nicolas Foglia, Miquel Garcia-Rates, Ingolf Harden, Hagen Neugebauer, Anastasios Papadopoulos, 
  Christoph Riplinger, Bernardo de Souza, Georgi L. Stoychev                                                    
                                                                 
  APM, various basis sets, CI-OPT, improved COSX, DLPNO-Multilevel,           
  DOCKER, DRACO, updates on ESD, Fragmentator, GOAT, IRC, LR-CPCM, L-BFGS, MBIS, meta-GGA TD-DFT gradient, ML-optimized integration grids, 
  MM, NACMEs, nearIR, NEB, NEB-TS, NL-DFT gradient (VV10), 2- and 3-layer-ONIOM, interface openCOSMO-RS, QMMM,   
  Crystal-QMMM, RESP, rigid body optimization, SF, symmetry and pop. for TD-DFT, various functionals, SOLVATOR                                   
                                                                         
[Other institutions]                                                     
  V. Asgeirsson          : NEB                                           
  Christoph Bannwarth    : sTDA-DFT, sTD-DFT, PBEh-3c, B97-3c, D3        
  Giovanni Bistoni       : ETS/NOCV, ADLD/ADEX, COVALED                  
  Martin Brehm           : Molecular dynamics                            
  Ronald Cardenas        : ETS/NOCV                                      
  Martina Colucci        : COVALED                                       
  Sebastian Ehlert       : rSCAN, r2SCAN, r2SCAN-3c, D4, dhf basis sets  
  Marvin Friede          : D4 for Fr, Ra, Ac-Lr                          
  Lars Goerigk           : TD-DFT with DH, B97 family of functionals     
  Stefan Grimme          : VdW corrections, initial TS optimization, DFT functionals, gCP, sTDA/sTD-DF 
  Waldemar Hujo          : DFT-NL                                        
  H. Jonsson             : NEB                                           
  Holger Kruse           : gCP                                           
  Marcel Mueller         : wB97X-3c, vDZP basis set                      
  Hagen Neugebauer       : wr2SCAN, Native XTB                           
  Gianluca Regni         : ADLD/ADEX                                     
  Tobias Risthaus        : pre 6.0 range-separated hybrid DFT and stability analysis
  Lukas Wittmann         : regularized MP2, r2SCAN double-hybrids, wr2SCAN        
                                                                         
We gratefully acknowledge several colleagues who have allowed us to      
interface, adapt or use parts of their codes:                            
  Ed Valeev, F. Pavosevic, A. Kumar             : LibInt (2-el integral package), F12 methods 
  Garnet Chan, S. Sharma, J. Yang, R. Olivares  : DMRG                   
  Ulf Ekstrom                                   : XCFun DFT Library      
  Mihaly Kallay                                 : mrcc  (arbitrary order and MRCC methods)
  Frank Weinhold                                : gennbo (NPA and NBO analysis)           
  Simon Mueller                                 : openCOSMO-RS                            
  Christopher J. Cramer and Donald G. Truhlar   : smd solvation model                     
  S Lehtola, MJT Oliveira, MAL Marques          : LibXC Library                           
  Liviu Ungur et al                             : ANISO software                          


 Your calculation uses the libint2 library for the computation of 2-el integrals
 For citations please refer to: http://libint.valeyev.net

 Your ORCA version has been built with support for libXC version: 7.0.0
 For citations please refer to: https://libxc.gitlab.io

 This ORCA versions uses:
   CBLAS   interface :  Fast vector & matrix operations
   LAPACKE interface :  Fast linear algebra routines
   SCALAPACK package :  Parallel linear algebra routines
   Shared memory     :  Shared parallel matrices
   BLAS/LAPACK       :  OpenBLAS 0.3.29  USE64BITINT DYNAMIC_ARCH NO_AFFINITY Cooperlake SINGLE_THREADED
        Core in use  :  Cooperlake
   Copyright (c) 2011-2014, The OpenBLAS Project


  ***********************************
  * Starting time: Wed May 13 14:54:46 2026
  * Host name:     node045.aire.lee.alces.network
  * Process ID:    972965
  * Working dir.:  /tmp/job.4919713
  ***********************************

NOTE: MaxCore=4000 MB was set to SCF,MP2,MDCI,CIPSI,MRCI,RASCI and CIS
      => If you want to overwrite this, your respective input block should be placed after the MaxCore statement


***************************************
The coordinates will be read from file: conf_012.xyz
***************************************


Your calculation utilizes the atom-pairwise dispersion correction
based on EEQ partial charges (D4)


================================================================================

cite the ECPs for C  [vDZP-ECP], F  [vDZP-ECP], O  [vDZP-ECP] as follows:
   B-Ne (ecp-2-mwb), Al-Ar (ecp-10-mwb), Ga-Kr (ecp-28-mwb), Y-Cd (ecp-28-mwb), In-Xe (ecp-46-mwb):
     A. Bergner, M. Dolg, W. Küchle, H. Stoll, and H. Preuß, Mol. Phys. 80, 1431 (1993)., T. Leininger, A. Berning, A. Nicklass, H. Stoll, H.-J. Werner, and H.-J.Flad, Chem. Phys. 217, 19 (1997).
   Na-Mg, K-Ca, Rb-Sr, Cs-Ba (CRENBL):
     L. Fernandez Pacios and P. A. Christiansen, J. Chem. Phys. 82, 2664 (1985)., M. M. Hurley, L. F. Pacios, P. A. Christiansen, R. B. Ross, and W. C. Ermler, J. Chem. Phys. 84, 6840 (1986)., L. A. LaJohn, P. A. Christiansen, R. B. Ross, T. Atashroo, and W. C. Ermler, J. Chem. Phys. 87, 2812 (1987)., R. B. Ross, J. M. Powers, T. Atashroo, W. C. Ermler, L. A. LaJohn, and P. A. Christiansen, J. Chem. Phys. 93, 6654 (1990). 
   Sc-Zn (ecp-10-mdf):
     M. Dolg, U. Wedig, H. Stoll, and H. Preuss, J. Chem. Phys. 86, 866 (1986). 
   Y-Cd (ecp-28-mwb), Hf-Hg (ecp-60-mwb):
     D. Andrae, U. Häußermann, M. Dolg, H. Stoll, and H. Preuß, Theor. Chim. Acta 77, 123 (1990). 
   La (ecp-46-mwb):
     M. Dolg, H. Stoll, and H. Preuss, J. Chem. Phys. 90, 1730 (1989)., M. Dolg, H. Stoll, and H. Preuss, Theor. Chim. Acta 85, 441 (1993).
   Ce-Lu (SBKJC-ecp):
     T. R. Cundari and W. J. Stevens, J. Chem. Phys. 98, 5555 (1993).
   Tl-Rn (ecp-78-mwb):
     W. Küchle, M. Dolg, H. Stoll, and H. Preuss, Mol. Phys. 74, 1245 (1991).

ECP parameters for C  [vDZP-ECP], F  [vDZP-ECP], O  [vDZP-ECP] have been obtained from:
MM, AH, SG, J. Chem. Phys. 158, 014103 (2023), 10.1063/5.0133026

----- Orbital basis set information -----
Your calculation utilizes the basis: vDZP
   Marcel Mueller, Andreas Hansen, Stefan Grimme 
   J. Chem. Phys. 158, 014103 (2023). DOI: 10.1063/5.0133026

----- AuxJ basis set information -----
Your calculation utilizes the auxiliary basis: def2/J
   H-Rn: F. Weigend, Phys. Chem. Chem. Phys. 8, 1057 (2006).
   Fr-Lr: K. Eichkorn, F. Weigend, O. Treutler, R. Ahlrichs; Theor. Chem. Acc. 97, 119 (1997).

================================================================================
                                        WARNINGS
                       Please study these warnings very carefully!
================================================================================

WARNING: Frozen-Core approximation turned on, but there are no core electrons.
  ===> : Turning off frozen-core approximation


================================================================================
                                       INPUT FILE
================================================================================
NAME = conf_012.inp
|  1> ! wb97x-3c mbis hirshfeld chelpg resp
|  2> %pal nprocs 4 end
|  3> %maxcore 4000
|  4> %method
|  5> 	   MBIS_LARGEPRINT TRUE
|  6> 	end
|  7> #conf_012
|  8> * xyzfile 0 1 conf_012.xyz
|  9> 
| 10>                          ****END OF INPUT****
================================================================================

                       ****************************
                       * Single Point Calculation *
                       ****************************

---------------------------------
CARTESIAN COORDINATES (ANGSTROEM)
---------------------------------
  C     10.305198    1.947548   -0.275064
  C      8.842062    1.606323   -0.027575
  C      8.241645    0.824626   -1.204824
  C      6.804420    0.501455   -0.939204
  C      6.450762   -0.664034   -0.270925
  C      5.125590   -0.924615    0.013319
  F      4.827770   -2.075979    0.642919
  C      4.087927   -0.065347   -0.350017
  C      2.678862   -0.360897   -0.049369
  C      1.700035   -0.177485   -1.022925
  C      0.380761   -0.453175   -0.726262
  F     -0.530865   -0.294613   -1.695171
  C     -0.021762   -0.921619    0.524229
  C     -1.441620   -1.258818    0.838948
  O     -1.787309   -2.213067    1.476041
  O     -2.255079   -0.343570    0.284019
  C     -3.628786   -0.406015    0.373168
  C     -4.319037    0.179938   -0.682245
  C     -5.697109    0.203878   -0.651254
  F     -6.339357    0.758906   -1.696334
  C     -6.430400   -0.349523    0.398995
  C     -7.900975   -0.331947    0.420302
  C     -8.609796    0.804762    0.041263
  C     -9.990842    0.803055    0.080424
  F    -10.659820    1.907306   -0.276211
  C    -10.700043   -0.320877    0.490514
  F    -12.037819   -0.315232    0.525489
  C     -9.981196   -1.451578    0.863935
  F    -10.639377   -2.550110    1.259548
  C     -8.600590   -1.462847    0.834877
  C     -5.705387   -0.930675    1.437075
  C     -4.323561   -0.958211    1.441379
  C      0.983615   -1.101294    1.474928
  F      0.653406   -1.513350    2.702426
  C      2.310281   -0.825534    1.210363
  C      4.480528    1.093688   -1.020567
  F      3.540398    1.986449   -1.383399
  C      5.798328    1.385872   -1.307641
  H     10.410333    2.558424   -1.168758
  H     10.713022    2.499887    0.567698
  H     10.892580    1.041896   -0.408107
  H      8.752143    1.008388    0.881497
  H      8.269809    2.524193    0.121058
  H      8.810097   -0.095648   -1.347076
  H      8.326684    1.426188   -2.111027
  H      7.199102   -1.380133    0.030070
  H      1.950852    0.169288   -2.012375
  H     -3.780174    0.604011   -1.513813
  H     -8.104764    1.701553   -0.278550
  H     -8.082621   -2.365480    1.116322
  H     -6.240193   -1.349901    2.274853
  H     -3.795562   -1.410987    2.263816
  H      3.039222   -0.970669    1.991135
  H      6.028610    2.305598   -1.821958

----------------------------
CARTESIAN COORDINATES (A.U.)
----------------------------
  NO LB      ZA    FRAG     MASS         X           Y           Z
   0 C     4.0000*   0    12.011   19.474003    3.680332   -0.519795
   1 C     4.0000*   0    12.011   16.709076    3.035510   -0.052108
   2 C     4.0000*   0    12.011   15.574452    1.558317   -2.276787
   3 C     4.0000*   0    12.011   12.858491    0.947613   -1.774838
   4 C     4.0000*   0    12.011   12.190173   -1.254842   -0.511974
   5 C     4.0000*   0    12.011    9.685962   -1.747269    0.025170
   6 F     7.0000*   0    18.998    9.123163   -3.923033    1.214941
   7 C     4.0000*   0    12.011    7.725063   -0.123487   -0.661436
   8 C     4.0000*   0    12.011    5.062315   -0.681997   -0.093295
   9 C     4.0000*   0    12.011    3.212601   -0.335398   -1.933048
  10 C     4.0000*   0    12.011    0.719534   -0.856377   -1.372436
  11 F     7.0000*   0    18.998   -1.003190   -0.556738   -3.203408
  12 C     4.0000*   0    12.011   -0.041123   -1.741608    0.990649
  13 C     4.0000*   0    12.011   -2.724267   -2.378820    1.585381
  14 O     6.0000*   0    15.999   -3.377524   -4.182091    2.789312
  15 O     6.0000*   0    15.999   -4.261482   -0.649254    0.536719
  16 C     4.0000*   0    12.011   -6.857412   -0.767257    0.705185
  17 C     4.0000*   0    12.011   -8.161796    0.340034   -1.289256
  18 C     4.0000*   0    12.011  -10.765975    0.385274   -1.230692
  19 F     7.0000*   0    18.998  -11.979649    1.434124   -3.205606
  20 C     4.0000*   0    12.011  -12.151696   -0.660503    0.753990
  21 C     4.0000*   0    12.011  -14.930679   -0.627290    0.794256
  22 C     4.0000*   0    12.011  -16.270156    1.520779    0.077976
  23 C     4.0000*   0    12.011  -18.879955    1.517554    0.151980
  24 F     7.0000*   0    18.998  -20.144140    3.604286   -0.521963
  25 C     4.0000*   0    12.011  -20.220150   -0.606370    0.926937
  26 F     7.0000*   0    18.998  -22.748181   -0.595702    0.993031
  27 C     4.0000*   0    12.011  -18.861728   -2.743085    1.632600
  28 F     7.0000*   0    18.998  -20.105509   -4.819009    2.380201
  29 C     4.0000*   0    12.011  -16.252759   -2.764380    1.577690
  30 C     4.0000*   0    12.011  -10.781620   -1.758720    2.715679
  31 C     4.0000*   0    12.011   -8.170347   -1.810756    2.723812
  32 C     4.0000*   0    12.011    1.858763   -2.081144    2.787209
  33 F     7.0000*   0    18.998    1.234759   -2.859817    5.106846
  34 C     4.0000*   0    12.011    4.365799   -1.560034    2.287255
  35 C     4.0000*   0    12.011    8.466970    2.066770   -1.928593
  36 F     7.0000*   0    18.998    6.690383    3.753845   -2.614246
  37 C     4.0000*   0    12.011   10.957253    2.618918   -2.471084
  38 H     1.0000    0     1.008   19.672679    4.834720   -2.208632
  39 H     1.0000    0     1.008   20.244679    4.724102    1.072795
  40 H     1.0000    0     1.008   20.583994    1.968897   -0.771210
  41 H     1.0000    0     1.008   16.539153    1.905578    1.665788
  42 H     1.0000    0     1.008   15.627674    4.770034    0.228766
  43 H     1.0000    0     1.008   16.648670   -0.180749   -2.545604
  44 H     1.0000    0     1.008   15.735153    2.695105   -3.989262
  45 H     1.0000    0     1.008   13.604330   -2.608074    0.056825
  46 H     1.0000    0     1.008    3.686576    0.319908   -3.802838
  47 H     1.0000    0     1.008   -7.143494    1.141416   -2.860692
  48 H     1.0000    0     1.008  -15.315785    3.215470   -0.526384
  49 H     1.0000    0     1.008  -15.273940   -4.470110    2.109543
  50 H     1.0000    0     1.008  -11.792256   -2.550943    4.298849
  51 H     1.0000    0     1.008   -7.172573   -2.666380    4.277992
  52 H     1.0000    0     1.008    5.743298   -1.834299    3.762699
  53 H     1.0000    0     1.008   11.392422    4.356949   -3.443003
* core charge reduced due to ECP

--------------------------------
INTERNAL COORDINATES (ANGSTROEM)
--------------------------------
 C      0   0   0     0.000000000000     0.00000000     0.00000000
 C      1   0   0     1.522646868680     0.00000000     0.00000000
 C      2   1   0     1.535404350158   111.42191086     0.00000000
 C      3   2   1     1.496865760749   110.44611941   180.02508546
 C      4   3   2     1.389257176831   120.72425734   271.46827653
 C      5   4   3     1.380136478825   120.12551008   177.48086089
 F      6   5   4     1.345634766345   118.06165012   178.94347806
 C      6   5   4     1.395385399417   122.96517630     0.47702384
 C      8   6   5     1.470783581279   122.37550767   179.52650215
 C      9   8   6     1.392678296505   120.26398903   224.98783990
 C     10   9   8     1.380035335059   119.69015958   180.27073872
 F     11  10   9     1.339771934672   118.12327278   181.48526389
 C     11  10   9     1.394701192691   122.39407275   359.66419689
 C     13  11  10     1.492899222575   122.64037596   181.80277453
 O     14  13  11     1.198324092866   124.49291481   138.76943833
 O     14  13  11     1.344372800400   109.55379457   319.64028606
 C     16  14  13     1.378012251365   123.06839559   178.33325367
 C     17  16  14     1.390568984035   115.25410607   208.23781268
 C     18  17  16     1.378628451660   119.10657789   182.23193276
 F     19  18  17     1.346376320459   117.80976313   181.01639055
 C     19  18  17     1.395346638943   122.36744146   359.48153407
 C     21  19  18     1.470834236266   122.11351322   180.58124841
 C     22  21  19     1.392194165499   120.98822483   317.44613049
 C     23  22  21     1.381602151481   120.01378339   180.58242796
 F     24  23  22     1.339436755368   119.38531631   179.43839635
 C     24  23  22     1.390813425941   121.26980854   359.81538919
 F     26  24  23     1.338245427030   120.93307402   180.02000543
 C     26  24  23     1.390923629906   118.20013938     0.03802771
 F     28  26  24     1.340329344622   119.45364824   180.19711978
 C     28  26  24     1.380958329188   121.17574559     0.21753938
 C     21  19  18     1.393195008425   116.92242691     0.35913113
 C     31  21  19     1.382107097446   122.06771467     0.31639133
 C     13  11  10     1.395311071324   116.50003656     0.00000000
 F     33  13  11     1.336256397851   119.17967339   178.19437333
 C     33  13  11     1.380608968727   122.41851651     0.44406628
 C      8   6   5     1.395397219715   115.30175223   359.61279831
 F     36   8   6     1.346296360583   118.93623520   181.21509360
 C     36   8   6     1.379993343093   122.99079632   359.79691840
 H      1   2   3     1.087617488539   110.62892841    60.05038231
 H      1   2   3     1.087036037362   110.38717468   180.01255229
 H      1   2   3     1.087623058644   110.62376158   299.96603233
 H      2   1   3     1.091797700281   109.70676525   120.93654077
 H      2   1   3     1.091811028830   109.71711208   239.05355380
 H      3   2   1     1.090998656901   109.00600361    59.11683916
 H      3   2   1     1.091014541468   109.00555129   300.93087733
 H      5   4   3     1.078614508768   120.97001593   357.20283155
 H     10   9   8     1.078040940189   121.36226751     0.79300547
 H     18  17  16     1.077829346980   120.21151099     2.54331772
 H     23  22  21     1.077762956727   121.43957855     0.05694543
 H     30  28  26     1.078077023784   118.79472358   181.03097446
 H     31  21  19     1.078721088110   118.86792410   178.75311275
 H     32  31  21     1.077121811878   120.05607895   179.63314990
 H     35  33  13     1.077971754102   118.95394878   179.08607046
 H     38  36   8     1.078632479234   118.92082423   180.52627543

---------------------------
INTERNAL COORDINATES (A.U.)
---------------------------
 C      0   0   0     0.000000000000     0.00000000     0.00000000
 C      1   0   0     2.877385580478     0.00000000     0.00000000
 C      2   1   0     2.901493726629   111.42191086     0.00000000
 C      3   2   1     2.828666347059   110.44611941   180.02508546
 C      4   3   2     2.625315593795   120.72425734   271.46827653
 C      5   4   3     2.608079972413   120.12551008   177.48086089
 F      6   5   4     2.542881184675   118.06165012   178.94347806
 C      6   5   4     2.636896256171   122.96517630     0.47702384
 C      8   6   5     2.779378170884   122.37550767   179.52650215
 C      9   8   6     2.631780573051   120.26398903   224.98783990
 C     10   9   8     2.607888838397   119.69015958   180.27073872
 F     11  10   9     2.531802038444   118.12327278   181.48526389
 C     11  10   9     2.635603292840   122.39407275   359.66419689
 C     13  11  10     2.821170676211   122.64037596   181.80277453
 O     14  13  11     2.264504355196   124.49291481   138.76943833
 O     14  13  11     2.540496414648   109.55379457   319.64028606
 C     16  14  13     2.604065764267   123.06839559   178.33325367
 C     17  16  14     2.627794550150   115.25410607   208.23781268
 C     18  17  16     2.605230214069   119.10657789   182.23193276
 F     19  18  17     2.544282518864   117.80976313   181.01639055
 C     19  18  17     2.636823009489   122.36744146   359.48153407
 C     21  19  18     2.779473894938   122.11351322   180.58124841
 C     22  21  19     2.630865698037   120.98822483   317.44613049
 C     23  22  21     2.610849692336   120.01378339   180.58242796
 F     24  23  22     2.531168641354   119.38531631   179.43839635
 C     24  23  22     2.628256478409   121.26980854   359.81538919
 F     26  24  23     2.528917357059   120.93307402   180.02000543
 C     26  24  23     2.628464733722   118.20013938     0.03802771
 F     28  26  24     2.532855390594   119.45364824   180.19711978
 C     28  26  24     2.609633044524   121.17574559     0.21753938
 C     21  19  18     2.632757017069   116.92242691     0.35913113
 C     31  21  19     2.611803901923   122.06771467     0.31639133
 C     13  11  10     2.636755796431   116.50003656     0.00000000
 F     33  13  11     2.525158636638   119.17967339   178.19437333
 C     33  13  11     2.608972848929   122.41851651     0.44406628
 C      8   6   5     2.636918593297   115.30175223   359.61279831
 F     36   8   6     2.544131416596   118.93623520   181.21509360
 C     36   8   6     2.607809485081   122.99079632   359.79691840
 H      1   2   3     2.055299191801   110.62892841    60.05038231
 H      1   2   3     2.054200408318   110.38717468   180.01255229
 H      1   2   3     2.055309717774   110.62376158   299.96603233
 H      2   1   3     2.063198647176   109.70676525   120.93654077
 H      2   1   3     2.063223834484   109.71711208   239.05355380
 H      3   2   1     2.061688674018   109.00600361    59.11683916
 H      3   2   1     2.061718691500   109.00555129   300.93087733
 H      5   4   3     2.038286025646   120.97001593   357.20283155
 H     10   9   8     2.037202138111   121.36226751     0.79300547
 H     18  17  16     2.036802284895   120.21151099     2.54331772
 H     23  22  21     2.036676825499   121.43957855     0.05694543
 H     30  28  26     2.037270326224   118.79472358   181.03097446
 H     31  21  19     2.038487431413   118.86792410   178.75311275
 H     32  31  21     2.035465237323   120.05607895   179.63314990
 H     35  33  13     2.037071395355   118.95394878   179.08607046
 H     38  36   8     2.038319984904   118.92082423   180.52627543

---------------------
BASIS SET INFORMATION
---------------------
There are 4 groups of distinct atoms

 Group   1 Type C   : 6s6p2d contracted to 2s2p1d pattern {42/42/2}
 Group   2 Type F   : 6s6p2d contracted to 2s2p1d pattern {42/42/2}
 Group   3 Type O   : 6s6p2d contracted to 2s2p1d pattern {42/42/2}
 Group   4 Type H   : 8s2p contracted to 2s1p pattern {53/2}

Atom   0C    basis set group =>   1
Atom   1C    basis set group =>   1
Atom   2C    basis set group =>   1
Atom   3C    basis set group =>   1
Atom   4C    basis set group =>   1
Atom   5C    basis set group =>   1
Atom   6F    basis set group =>   2
Atom   7C    basis set group =>   1
Atom   8C    basis set group =>   1
Atom   9C    basis set group =>   1
Atom  10C    basis set group =>   1
Atom  11F    basis set group =>   2
Atom  12C    basis set group =>   1
Atom  13C    basis set group =>   1
Atom  14O    basis set group =>   3
Atom  15O    basis set group =>   3
Atom  16C    basis set group =>   1
Atom  17C    basis set group =>   1
Atom  18C    basis set group =>   1
Atom  19F    basis set group =>   2
Atom  20C    basis set group =>   1
Atom  21C    basis set group =>   1
Atom  22C    basis set group =>   1
Atom  23C    basis set group =>   1
Atom  24F    basis set group =>   2
Atom  25C    basis set group =>   1
Atom  26F    basis set group =>   2
Atom  27C    basis set group =>   1
Atom  28F    basis set group =>   2
Atom  29C    basis set group =>   1
Atom  30C    basis set group =>   1
Atom  31C    basis set group =>   1
Atom  32C    basis set group =>   1
Atom  33F    basis set group =>   2
Atom  34C    basis set group =>   1
Atom  35C    basis set group =>   1
Atom  36F    basis set group =>   2
Atom  37C    basis set group =>   1
Atom  38H    basis set group =>   4
Atom  39H    basis set group =>   4
Atom  40H    basis set group =>   4
Atom  41H    basis set group =>   4
Atom  42H    basis set group =>   4
Atom  43H    basis set group =>   4
Atom  44H    basis set group =>   4
Atom  45H    basis set group =>   4
Atom  46H    basis set group =>   4
Atom  47H    basis set group =>   4
Atom  48H    basis set group =>   4
Atom  49H    basis set group =>   4
Atom  50H    basis set group =>   4
Atom  51H    basis set group =>   4
Atom  52H    basis set group =>   4
Atom  53H    basis set group =>   4
---------------------------------
AUXILIARY/J BASIS SET INFORMATION
---------------------------------
There are 4 groups of distinct atoms

 Group   1 Type C   : 12s5p4d2f1g contracted to 6s4p3d1f1g pattern {711111/2111/211/2/1}
 Group   2 Type F   : 12s5p4d2f1g contracted to 6s4p3d1f1g pattern {711111/2111/211/2/1}
 Group   3 Type O   : 12s5p4d2f1g contracted to 6s4p3d1f1g pattern {711111/2111/211/2/1}
 Group   4 Type H   : 5s2p1d contracted to 3s1p1d pattern {311/2/1}

Atom   0C    basis set group =>   1
Atom   1C    basis set group =>   1
Atom   2C    basis set group =>   1
Atom   3C    basis set group =>   1
Atom   4C    basis set group =>   1
Atom   5C    basis set group =>   1
Atom   6F    basis set group =>   2
Atom   7C    basis set group =>   1
Atom   8C    basis set group =>   1
Atom   9C    basis set group =>   1
Atom  10C    basis set group =>   1
Atom  11F    basis set group =>   2
Atom  12C    basis set group =>   1
Atom  13C    basis set group =>   1
Atom  14O    basis set group =>   3
Atom  15O    basis set group =>   3
Atom  16C    basis set group =>   1
Atom  17C    basis set group =>   1
Atom  18C    basis set group =>   1
Atom  19F    basis set group =>   2
Atom  20C    basis set group =>   1
Atom  21C    basis set group =>   1
Atom  22C    basis set group =>   1
Atom  23C    basis set group =>   1
Atom  24F    basis set group =>   2
Atom  25C    basis set group =>   1
Atom  26F    basis set group =>   2
Atom  27C    basis set group =>   1
Atom  28F    basis set group =>   2
Atom  29C    basis set group =>   1
Atom  30C    basis set group =>   1
Atom  31C    basis set group =>   1
Atom  32C    basis set group =>   1
Atom  33F    basis set group =>   2
Atom  34C    basis set group =>   1
Atom  35C    basis set group =>   1
Atom  36F    basis set group =>   2
Atom  37C    basis set group =>   1
Atom  38H    basis set group =>   4
Atom  39H    basis set group =>   4
Atom  40H    basis set group =>   4
Atom  41H    basis set group =>   4
Atom  42H    basis set group =>   4
Atom  43H    basis set group =>   4
Atom  44H    basis set group =>   4
Atom  45H    basis set group =>   4
Atom  46H    basis set group =>   4
Atom  47H    basis set group =>   4
Atom  48H    basis set group =>   4
Atom  49H    basis set group =>   4
Atom  50H    basis set group =>   4
Atom  51H    basis set group =>   4
Atom  52H    basis set group =>   4
Atom  53H    basis set group =>   4
-------------------------
ECP PARAMETER INFORMATION
-------------------------

 Group 1, Type C  ECP vDZP-ECP (replacing 2 core electrons, lmax=3)
 Group 2, Type F  ECP vDZP-ECP (replacing 2 core electrons, lmax=3)
 Group 3, Type O  ECP vDZP-ECP (replacing 2 core electrons, lmax=3)

Atom   0C    ECP group =>   1
Atom   1C    ECP group =>   1
Atom   2C    ECP group =>   1
Atom   3C    ECP group =>   1
Atom   4C    ECP group =>   1
Atom   5C    ECP group =>   1
Atom   6F    ECP group =>   2
Atom   7C    ECP group =>   1
Atom   8C    ECP group =>   1
Atom   9C    ECP group =>   1
Atom  10C    ECP group =>   1
Atom  11F    ECP group =>   2
Atom  12C    ECP group =>   1
Atom  13C    ECP group =>   1
Atom  14O    ECP group =>   3
Atom  15O    ECP group =>   3
Atom  16C    ECP group =>   1
Atom  17C    ECP group =>   1
Atom  18C    ECP group =>   1
Atom  19F    ECP group =>   2
Atom  20C    ECP group =>   1
Atom  21C    ECP group =>   1
Atom  22C    ECP group =>   1
Atom  23C    ECP group =>   1
Atom  24F    ECP group =>   2
Atom  25C    ECP group =>   1
Atom  26F    ECP group =>   2
Atom  27C    ECP group =>   1
Atom  28F    ECP group =>   2
Atom  29C    ECP group =>   1
Atom  30C    ECP group =>   1
Atom  31C    ECP group =>   1
Atom  32C    ECP group =>   1
Atom  33F    ECP group =>   2
Atom  34C    ECP group =>   1
Atom  35C    ECP group =>   1
Atom  36F    ECP group =>   2
Atom  37C    ECP group =>   1



           ************************************************************
           *        Program running with 4 parallel MPI-processes     *
           *              working on a common directory               *
           ************************************************************
------------------------------------------------------------------------------
                             ORCA STARTUP CALCULATIONS
                           -- RI-GTO INTEGRALS CHOSEN --
------------------------------------------------------------------------------
------------------------------------------------------------------------------
                   ___                                                        
                  /   \      - P O W E R E D   B Y -                         
                 /     \                                                     
                 |  |  |   _    _      __       _____    __    __             
                 |  |  |  | |  | |    /  \     |  _  \  |  |  /  |          
                  \  \/   | |  | |   /    \    | | | |  |  | /  /          
                 / \  \   | |__| |  /  /\  \   | |_| |  |  |/  /          
                |  |  |   |  __  | /  /__\  \  |    /   |      \           
                |  |  |   | |  | | |   __   |  |    \   |  |\   \          
                \     /   | |  | | |  |  |  |  | |\  \  |  | \   \       
                 \___/    |_|  |_| |__|  |__|  |_| \__\ |__|  \__/        
                                                                              
                      - O R C A' S   B I G   F R I E N D -                    
                                      &                                       
                       - I N T E G R A L  F E E D E R -                       
                                                                              
 v1 FN, 2020, v2 2021, v3 2022-2024                                           
------------------------------------------------------------------------------


----------------------
SHARK INTEGRAL PACKAGE
----------------------

Number of atoms                             ...     54
Number of basis functions                   ...    574
Number of shells                            ...    238
Maximum angular momentum                    ...      2
Integral batch strategy                     ... SHARK/LIBINT Hybrid
RI-J (if used) integral strategy            ... SPLIT-RIJ (Revised 2003 algorithm where possible)
Printlevel                                  ...      1
Contraction scheme used                     ... SEGMENTED contraction
Prescreening option                         ... SCHWARTZ
   Thresh                                   ... 1.000e-10
   Tcut                                     ... 1.000e-11
   Tpresel                                  ... 1.000e-11 
Coulomb Range Separation                    ... NOT USED
Exchange Range Separation                   ... Long Range
   Mu parameter                             ... 3.000e-01
   Scaling (regular/separated)              ... 1.670e-01 8.330e-01
Robust (split-)RI terms used:
  metric    (central integrals)             ... YES
  density   (r.h.s.  integrals)             ... YES
  potential (l.h.s.  integrals)             ... YES
Multipole approximations                    ... NOT USED
Finite Nucleus Model                        ... NOT USED
CABS basis                                  ... NOT available
Auxiliary Coulomb fitting basis             ... AVAILABLE
   # of basis functions in Aux-J            ...   2038
   # of shells in Aux-J                     ...    650
   Maximum angular momentum in Aux-J        ...      4
Auxiliary J/K fitting basis                 ... NOT available
Auxiliary Correlation fitting basis         ... NOT available
Auxiliary 'external' fitting basis          ... NOT available

done (  0.0 sec) Dimension = 238
   => SHARK Basis and OBASIS are compatible. Storing Pre-screening
Shell pair information
Shell pair cut-off parameter TPreSel        ...   1.0e-11
Total number of shell pairs                 ...     28441
Shell pairs after pre-screening             ...     18305
Total number of primitive shell pairs       ...    240572
Primitive shell pairs kept                  ...    101267
          la=0 lb=0:   3880 shell pairs
          la=1 lb=0:   6521 shell pairs
          la=1 lb=1:   2836 shell pairs
          la=2 lb=0:   2524 shell pairs
          la=2 lb=1:   2127 shell pairs
          la=2 lb=2:    417 shell pairs

Checking whether 4 symmetric matrices of dimension 574 fit in memory
:Max Core in MB      =   4000.00
 MB in use           =     36.69
 MB left             =   3963.31
 MB needed           =      5.04
 Data fit in memory  = YES
done (  0.3 sec)
Calculating Nuclear repulsion               ... done (  0.0 sec) ENN=   1923.773683995150 Eh

Diagonalization of the overlap matrix:
Smallest eigenvalue                        ... 2.253e-04
Time for diagonalization                   ...    0.059 sec
Threshold for overlap eigenvalues          ... 1.000e-07
Number of eigenvalues below threshold      ... 0
Time for construction of square roots      ...    0.032 sec
Total time needed                          ...    0.110 sec

-------------------
DFT GRID GENERATION
-------------------

General Integration Accuracy     IntAcc      ... 4.388
Radial Grid Type                 RadialGrid  ... OptM3 with GC (2021)
Angular Grid (max. ang.)         AngularGrid ... 4 (Lebedev-302)
Angular grid pruning method      GridPruning ... 4 (adaptive)
Weight generation scheme         WeightScheme... mBecke (2022)
Basis function cutoff            BFCut       ... 1.0000e-10
Integration weight cutoff        WCut        ... 1.0000e-14
Partially contracted basis set               ... off
Rotationally invariant grid construction     ... off
Angular grids for H and He will be reduced by one unit

Total number of grid points                  ...   278857
Total number of batches                      ...     4388
Average number of points per batch           ...       63
Average number of grid points per atom       ...     5164

--------------------
COSX GRID GENERATION
--------------------

GRIDX 1
-------
General Integration Accuracy     IntAcc      ... 3.816
Radial Grid Type                 RadialGrid  ... OptM3 with GC (2021)
Angular Grid (max. ang.)         AngularGrid ... 1 (Lebedev-50)
Angular grid pruning method      GridPruning ... 4 (adaptive)
Weight generation scheme         WeightScheme... mBecke (2022)
Basis function cutoff            BFCut       ... 1.0000e-10
Integration weight cutoff        WCut        ... 1.0000e-14
Partially contracted basis set               ... on
Rotationally invariant grid construction     ... off
Angular grids for H and He will be reduced by one unit

Total number of grid points                  ...    35273
Total number of batches                      ...      305
Average number of points per batch           ...      115
Average number of grid points per atom       ...      653
UseSFitting                                  ... on

GRIDX 2
-------
General Integration Accuracy     IntAcc      ... 4.020
Radial Grid Type                 RadialGrid  ... OptM3 with GC (2021)
Angular Grid (max. ang.)         AngularGrid ... 2 (Lebedev-110)
Angular grid pruning method      GridPruning ... 4 (adaptive)
Weight generation scheme         WeightScheme... mBecke (2022)
Basis function cutoff            BFCut       ... 1.0000e-10
Integration weight cutoff        WCut        ... 1.0000e-14
Partially contracted basis set               ... on
Rotationally invariant grid construction     ... off
Angular grids for H and He will be reduced by one unit

Total number of grid points                  ...    79095
Total number of batches                      ...      641
Average number of points per batch           ...      123
Average number of grid points per atom       ...     1465
UseSFitting                                  ... on

GRIDX 3
-------
General Integration Accuracy     IntAcc      ... 4.338
Radial Grid Type                 RadialGrid  ... OptM3 with GC (2021)
Angular Grid (max. ang.)         AngularGrid ... 3 (Lebedev-194)
Angular grid pruning method      GridPruning ... 4 (adaptive)
Weight generation scheme         WeightScheme... mBecke (2022)
Basis function cutoff            BFCut       ... 1.0000e-10
Integration weight cutoff        WCut        ... 1.0000e-14
Partially contracted basis set               ... on
Rotationally invariant grid construction     ... off
Angular grids for H and He will be reduced by one unit

Total number of grid points                  ...   173719
Total number of batches                      ...     1383
Average number of points per batch           ...      125
Average number of grid points per atom       ...     3217
UseSFitting                                  ... on
Grids setup in   8.8 sec
Initializing property integral containers    ... done (  0.0 sec)

SHARK setup successfully completed in  11.6 seconds

Maximum memory used throughout the entire STARTUP-calculation: 101.0 MB


           ************************************************************
           *        Program running with 4 parallel MPI-processes     *
           *              working on a common directory               *
           ************************************************************
-------------------------------------------------------------------------------
                                 ORCA GUESS
                   Start orbitals & Density for SCF / CASSCF
-------------------------------------------------------------------------------

------------
SCF SETTINGS
------------
Hamiltonian:
 Density Functional     Method          .... DFT(GTOs)
 Exchange Functional    Exchange        .... WB97X-V
 Correlation Functional Correlation     .... WB97X-V
 Gradients option       PostSCFGGA      .... off
 Hybrid DFT is turned on
   Fraction HF Exchange ScalHFX         ....  0.167000
   Scaling of DF-GGA-X  ScalDFX         ....  0.000000
   Scaling of DF-GGA-C  ScalDFC         ....  1.000000
   Scaling of DF-LDA-C  ScalLDAC        ....  1.000000
   Perturbative correction              ....  0.000000
 Long-range corrected/Screened/Range-Separated Hybrid DFT is turned on
   Amount of maximum screened exact exchange              ....  0.833000
   Range separation parameter mu (erf(mu*r12)/r12)        ....  0.300000
   NL short-range parameter             ....  6.000000
   NL long-range parameter              ....  0.010000
 RI-approximation to the Coulomb term is turned on
   Number of AuxJ basis functions       .... 2038
   RIJ-COSX (HFX calculated with COS-X)).... on


General Settings:
 Integral files         IntName         .... conf_012
 Hartree-Fock type      HFTyp           .... RHF
 Total Charge           Charge          ....    0
 Multiplicity           Mult            ....    1
 Number of Electrons    NEL             ....  196
 Basis Dimension        Dim             ....  574
 Nuclear Repulsion      ENuc            ....   1923.7736839951 Eh

Convergence Acceleration:
 AO-DIIS                CNVDIIS         .... on
   Start iteration      DIISMaxIt       ....    12
   Startup error        DIISStart       ....  0.200000
   # of expansion vecs  DIISMaxEq       ....     5
   Bias factor          DIISBfac        ....   1.050
   Max. coefficient     DIISMaxC        ....  10.000
 MO-DIIS                CNVKDIIS        .... off
 Trust-Rad. Augm. Hess. CNVTRAH         .... auto
   Auto Start mean grad. ratio tolernc. ....  1.125000
   Auto Start start iteration           ....    50
   Auto Start num. interpolation iter.  ....    10
   Max. Number of Micro iterations      ....    24
   Max. Number of Macro iterations      .... Maxiter - #DIIS iter
   Number of Davidson start vectors     ....     2
   Converg. threshold    (grad. norm)   ....   5.000e-05
   Grad. Scal. Fac. for Micro threshold ....   0.100
   Minimum threshold for Micro iter.    ....   1.000e-02
   NR start threshold (gradient norm)   ....   1.000e-04
   Initial trust radius                 ....   0.400
   Minimum AH scaling param. (alpha)    ....   1.000
   Maximum AH scaling param. (alpha)    .... 1000.000
   Quad. conv. algorithm                .... NR
   White noise on init. David. guess    .... on
   Maximum white noise                  ....   0.010
   Pseudo random numbers                .... off
   Inactive MOs                         .... canonical
   Orbital update algorithm             .... Taylor
   Preconditioner                       .... Diag
   Full preconditioner red. dimension   ....   250
 SOSCF                 CNVSOSCF           .... on
   Start iteration     SOSCFMaxIt         ....   150
   Startup grad/error  SOSCFStart         ....  0.003300
   Hessian update      SOSCFHessUp        .... L-BFGS
   Autom. constraints  SOSCFAutoConstrain .... off
 Level Shifting         CNVShift        .... on
   Level shift para.    LevelShift      ....    0.2500
   Turn off err/grad.   ShiftErr        ....    0.0010
 Zerner damping         CNVZerner       .... off
 Static damping         CNVDamp         .... on
   Fraction old density DampFac         ....    0.7000
   Max. Damping (<1)    DampMax         ....    0.9800
   Min. Damping (>=0)   DampMin         ....    0.0000
   Turn off err/grad.   DampErr         ....    0.1000

SCF Procedure:
 Maximum # iterations   MaxIter         ....   125
 SCF integral mode      SCFMode         .... Direct
   Integral package                     .... SHARK and LIBINT hybrid scheme
 Reset frequency        DirectResetFreq ....    20
 Integral Threshold     Thresh          ....  1.000e-10 Eh
 Primitive CutOff       TCut            ....  1.000e-11 Eh

Convergence Tolerance:
 Convergence Check Mode ConvCheckMode   .... Total+1el-Energy
 Convergence forced     ConvForced      .... 0
 Energy Change          TolE            ....  1.000e-06 Eh
 1-El. energy change                    ....  1.000e-03 Eh
 Orbital Gradient       TolG            ....  5.000e-05
 Orbital Rotation angle TolX            ....  5.000e-05
 DIIS Error             TolErr          ....  1.000e-06

------------------------------
INITIAL GUESS: MODEL POTENTIAL
------------------------------
Loading Hartree-Fock densities                     ... done
Atomic calculation to generate a density for atom 0 (C  with ECP)
  Multiplicity assumed   :    1
  Atomic configuration   : 1s2 2s2 2p2 
  Number of open shells  : 1
  Command: /opt/apps/pkg/applications/orca/orca_6_1_0_linux_x86-64_shared_openmpi418/orca conf_012_atom6.inp "" > conf_012_atom6.out
Returned from the atomic calculation with res=0
Atomic calculation to generate a density for atom 6 (F  with ECP)
  Multiplicity assumed   :    2
  Atomic configuration   : 1s2 2s2 2p5 
  Number of open shells  : 1
  Command: /opt/apps/pkg/applications/orca/orca_6_1_0_linux_x86-64_shared_openmpi418/orca conf_012_atom9.inp "" > conf_012_atom9.out
Returned from the atomic calculation with res=0
Atomic calculation to generate a density for atom 14 (O  with ECP)
  Multiplicity assumed   :    3
  Atomic configuration   : 1s2 2s2 2p4 
  Number of open shells  : 1
  Command: /opt/apps/pkg/applications/orca/orca_6_1_0_linux_x86-64_shared_openmpi418/orca conf_012_atom8.inp "" > conf_012_atom8.out
Returned from the atomic calculation with res=0
Calculating cut-offs                               ... done
Initializing the effective Hamiltonian             ... done
Setting up the integral package (SHARK)            ... done
done (   1.8 sec)
done (   1.7 sec)
Mapping shells                                     ... done
Starting the XC term evaluation                    ... done (   0.5 sec)
  promolecular density results
     # of electrons  =    271.988479563
     EX              =   -168.150058841
     EC              =    -11.744302649
     EX+EC           =   -179.894361491
Transforming the Hamiltonian                       ... done (   0.1 sec)
done (   0.1 sec)
Back transforming the eigenvectors                 ... done (   0.3 sec)
done
                      ------------------
                      INITIAL GUESS DONE (   8.0 sec)
                      ------------------
             **** ENERGY FILE WAS UPDATED (conf_012.en.tmp) ****
Finished Guess after  10.2 sec
Maximum memory used throughout the entire GUESS-calculation: 55.2 MB


           ************************************************************
           *        Program running with 4 parallel MPI-processes     *
           *              working on a common directory               *
           ************************************************************

-------------------------------------------------------------------------------------------
                                      ORCA LEAN-SCF
                              memory conserving SCF solver
-------------------------------------------------------------------------------------------

----------------------------------------D-I-I-S--------------------------------------------
Iteration    Energy (Eh)           Delta-E    RMSDP     MaxDP     DIISErr   Damp  Time(sec)
-------------------------------------------------------------------------------------------
               ***  Starting incremental Fock matrix formation  ***
    1    -394.3763897056205678     0.00e+00  5.84e-03  9.43e-02  2.26e-01  0.700  74.8
    2    -394.9462465550218440    -5.70e-01  4.23e-03  6.70e-02  1.12e-01  0.700  31.9
                               ***Turning on AO-DIIS***
    3    -395.2107810929387597    -2.65e-01  2.44e-03  3.46e-02  5.85e-02  0.700  29.7
    4    -395.3677787810383961    -1.57e-01  5.37e-03  7.22e-02  3.37e-02  0.000  28.6
    5    -395.7096536125113744    -3.42e-01  4.50e-04  6.84e-03  7.29e-03  0.000  32.4
    6    -395.7114641432508506    -1.81e-03  2.33e-04  4.96e-03  3.60e-03  0.000  25.1
                              *** Initializing SOSCF ***
---------------------------------------S-O-S-C-F--------------------------------------
Iteration    Energy (Eh)           Delta-E    RMSDP     MaxDP     MaxGrad    Time(sec)
--------------------------------------------------------------------------------------
    7    -395.7119732766777815    -5.09e-04  1.21e-04  2.98e-03  1.97e-03    22.4
               *** Restarting incremental Fock matrix formation ***
    8    -395.7120146555989777    -4.14e-05  8.00e-05  1.82e-03  1.24e-03    70.1
    9    -395.7120664779599792    -5.18e-05  9.48e-05  2.38e-03  5.95e-04    42.8
   10    -395.7120804944343035    -1.40e-05  2.98e-05  1.28e-03  2.47e-04    41.0
   11    -395.7120862138503981    -5.72e-06  1.09e-05  2.78e-04  4.97e-05    35.6
   12    -395.7120863753693811    -1.62e-07  4.98e-06  9.31e-05  4.50e-05    27.8
                 **** Energy Check signals convergence ****

               *****************************************************
               *                     SUCCESS                       *
               *           SCF CONVERGED AFTER  12 CYCLES          *
               *****************************************************

 done (  132.370 sec)
Old exchange energy                            :    -40.322457747 Eh
New exchange energy                            :    -40.322471062 Eh
Exchange energy change after final integration :     -0.000013315 Eh
Total energy after final integration           :   -395.712099974 Eh
             **** ENERGY FILE WAS UPDATED (conf_012.en.tmp) ****

----------------
TOTAL SCF ENERGY
----------------

Total Energy       :       -395.71209997421153 Eh          -10767.87367 eV

Components:
Nuclear Repulsion  :       1923.77368399514990 Eh           52348.54329 eV
Electronic Energy  :      -2319.48577065392465 Eh          -63116.41660 eV
One Electron Energy:      -4463.61675005045254 Eh         -121461.18674 eV
Two Electron Energy:       2144.13097939652789 Eh           58344.77014 eV

Virial components:
Potential Energy   :       -709.37596346104522 Eh          -19303.10132 eV
Kinetic Energy     :        313.66386348683369 Eh            8535.22765 eV
Virial Ratio       :          2.26158013733329

DFT components:
N(Alpha)           :       98.000088955018 electrons
N(Beta)            :       98.000088955018 electrons
N(Total)           :      196.000177910037 electrons
E(X)               :      -51.261370750190 Eh       
E(C)               :       -7.927573777018 Eh       
E(XC)              :      -59.188944527208 Eh       

---------------
SCF CONVERGENCE
---------------

  Last Energy change         ...    1.6152e-07  Tolerance :   1.0000e-06
  Last MAX-Density change    ...    9.3103e-05  Tolerance :   1.0000e-05
  Last RMS-Density change    ...    4.9796e-06  Tolerance :   1.0000e-06
  Last DIIS Error            ...    1.9682e-03  Tolerance :   1.0000e-06
  Last Orbital Gradient      ...    4.5049e-05  Tolerance :   5.0000e-05
  Last Orbital Rotation      ...    1.8052e-04  Tolerance :   5.0000e-05


----------------
ORBITAL ENERGIES
----------------

  NO   OCC          E(Eh)            E(eV) 
   0   2.0000      -1.387357       -37.7519 
   1   2.0000      -1.382438       -37.6181 
   2   2.0000      -1.380307       -37.5601 
   3   2.0000      -1.379954       -37.5505 
   4   2.0000      -1.379526       -37.5388 
   5   2.0000      -1.376302       -37.4511 
   6   2.0000      -1.372384       -37.3445 
   7   2.0000      -1.367000       -37.1980 
   8   2.0000      -1.278316       -34.7847 
   9   2.0000      -1.183781       -32.2123 
  10   2.0000      -1.060198       -28.8495 
  11   2.0000      -1.052827       -28.6489 
  12   2.0000      -1.041926       -28.3523 
  13   2.0000      -1.030353       -28.0373 
  14   2.0000      -0.985493       -26.8166 
  15   2.0000      -0.963074       -26.2066 
  16   2.0000      -0.949571       -25.8391 
  17   2.0000      -0.922186       -25.0939 
  18   2.0000      -0.921222       -25.0677 
  19   2.0000      -0.918501       -24.9937 
  20   2.0000      -0.917330       -24.9618 
  21   2.0000      -0.915833       -24.9211 
  22   2.0000      -0.898421       -24.4473 
  23   2.0000      -0.857764       -23.3409 
  24   2.0000      -0.833937       -22.6926 
  25   2.0000      -0.799535       -21.7565 
  26   2.0000      -0.797243       -21.6941 
  27   2.0000      -0.793708       -21.5979 
  28   2.0000      -0.778642       -21.1879 
  29   2.0000      -0.777157       -21.1475 
  30   2.0000      -0.772196       -21.0125 
  31   2.0000      -0.761774       -20.7289 
  32   2.0000      -0.737753       -20.0753 
  33   2.0000      -0.736688       -20.0463 
  34   2.0000      -0.713642       -19.4192 
  35   2.0000      -0.710096       -19.3227 
  36   2.0000      -0.693815       -18.8797 
  37   2.0000      -0.690472       -18.7887 
  38   2.0000      -0.687318       -18.7029 
  39   2.0000      -0.684425       -18.6242 
  40   2.0000      -0.680204       -18.5093 
  41   2.0000      -0.670165       -18.2361 
  42   2.0000      -0.654408       -17.8073 
  43   2.0000      -0.644073       -17.5261 
  44   2.0000      -0.642430       -17.4814 
  45   2.0000      -0.639610       -17.4047 
  46   2.0000      -0.639534       -17.4026 
  47   2.0000      -0.638246       -17.3676 
  48   2.0000      -0.634948       -17.2778 
  49   2.0000      -0.632717       -17.2171 
  50   2.0000      -0.628368       -17.0988 
  51   2.0000      -0.618302       -16.8249 
  52   2.0000      -0.616403       -16.7732 
  53   2.0000      -0.614549       -16.7227 
  54   2.0000      -0.610305       -16.6072 
  55   2.0000      -0.607379       -16.5276 
  56   2.0000      -0.605977       -16.4895 
  57   2.0000      -0.603852       -16.4317 
  58   2.0000      -0.597605       -16.2617 
  59   2.0000      -0.595346       -16.2002 
  60   2.0000      -0.594174       -16.1683 
  61   2.0000      -0.588320       -16.0090 
  62   2.0000      -0.585475       -15.9316 
  63   2.0000      -0.579696       -15.7743 
  64   2.0000      -0.574631       -15.6365 
  65   2.0000      -0.567793       -15.4504 
  66   2.0000      -0.563717       -15.3395 
  67   2.0000      -0.552225       -15.0268 
  68   2.0000      -0.542372       -14.7587 
  69   2.0000      -0.540432       -14.7059 
  70   2.0000      -0.537001       -14.6125 
  71   2.0000      -0.536295       -14.5933 
  72   2.0000      -0.533037       -14.5047 
  73   2.0000      -0.526325       -14.3220 
  74   2.0000      -0.520465       -14.1626 
  75   2.0000      -0.515395       -14.0246 
  76   2.0000      -0.509838       -13.8734 
  77   2.0000      -0.507628       -13.8133 
  78   2.0000      -0.502511       -13.6740 
  79   2.0000      -0.501412       -13.6441 
  80   2.0000      -0.499678       -13.5969 
  81   2.0000      -0.497583       -13.5399 
  82   2.0000      -0.490695       -13.3525 
  83   2.0000      -0.488310       -13.2876 
  84   2.0000      -0.481375       -13.0989 
  85   2.0000      -0.468659       -12.7529 
  86   2.0000      -0.462965       -12.5979 
  87   2.0000      -0.461549       -12.5594 
  88   2.0000      -0.459162       -12.4944 
  89   2.0000      -0.422426       -11.4948 
  90   2.0000      -0.401492       -10.9251 
  91   2.0000      -0.388455       -10.5704 
  92   2.0000      -0.370817       -10.0904 
  93   2.0000      -0.369835       -10.0637 
  94   2.0000      -0.369346       -10.0504 
  95   2.0000      -0.368059       -10.0154 
  96   2.0000      -0.351541        -9.5659 
  97   2.0000      -0.336279        -9.1506 
  98   0.0000      -0.010540        -0.2868 
  99   0.0000       0.016455         0.4478 
 100   0.0000       0.046691         1.2705 
 101   0.0000       0.046784         1.2731 
 102   0.0000       0.048146         1.3101 
 103   0.0000       0.049098         1.3360 
 104   0.0000       0.049701         1.3524 
 105   0.0000       0.073173         1.9911 
 106   0.0000       0.078830         2.1451 
 107   0.0000       0.083925         2.2837 
 108   0.0000       0.086173         2.3449 
*Only the first 10 virtual orbitals were printed.

                    ********************************
                    * MULLIKEN POPULATION ANALYSIS *
                    ********************************

-----------------------
MULLIKEN ATOMIC CHARGES
-----------------------
   0 C :   -0.064588
   1 C :   -0.064424
   2 C :   -0.043373
   3 C :   -0.041237
   4 C :    0.037303
   5 C :    0.199432
   6 F :   -0.226567
   7 C :   -0.128645
   8 C :   -0.085897
   9 C :    0.070143
  10 C :    0.241649
  11 F :   -0.215754
  12 C :   -0.155543
  13 C :    0.284034
  14 O :   -0.278610
  15 O :   -0.224583
  16 C :    0.062467
  17 C :    0.054873
  18 C :    0.189804
  19 F :   -0.230456
  20 C :   -0.107747
  21 C :   -0.079097
  22 C :    0.060518
  23 C :    0.170667
  24 F :   -0.215205
  25 C :    0.193597
  26 F :   -0.209720
  27 C :    0.174108
  28 F :   -0.216682
  29 C :    0.025924
  30 C :    0.033917
  31 C :    0.040153
  32 C :    0.226099
  33 F :   -0.205717
  34 C :    0.065479
  35 C :    0.198469
  36 F :   -0.227725
  37 C :    0.037058
  38 H :    0.028895
  39 H :    0.036162
  40 H :    0.028807
  41 H :    0.042173
  42 H :    0.042750
  43 H :    0.044210
  44 H :    0.043934
  45 H :    0.031886
  46 H :    0.048730
  47 H :    0.041926
  48 H :    0.047456
  49 H :    0.045448
  50 H :    0.037804
  51 H :    0.054639
  52 H :    0.049448
  53 H :    0.031609
Sum of atomic charges:    0.0000000

--------------------------------
MULLIKEN REDUCED ORBITAL CHARGES
--------------------------------
  0 C s       :     0.937850  s :     0.937850
      pz      :     1.050231  p :     3.052467
      px      :     0.960052
      py      :     1.042184
      dz2     :     0.012450  d :     0.074271
      dxz     :     0.012971
      dyz     :     0.016868
      dx2y2   :     0.011442
      dxy     :     0.020540

  1 C s       :     1.007586  s :     1.007586
      pz      :     0.980048  p :     2.955086
      px      :     0.952336
      py      :     1.022702
      dz2     :     0.021095  d :     0.101753
      dxz     :     0.017258
      dyz     :     0.021087
      dx2y2   :     0.017507
      dxy     :     0.024805

  2 C s       :     0.968507  s :     0.968507
      pz      :     1.005353  p :     2.974441
      px      :     0.936437
      py      :     1.032651
      dz2     :     0.022236  d :     0.100425
      dxz     :     0.016733
      dyz     :     0.019677
      dx2y2   :     0.019449
      dxy     :     0.022330

  3 C s       :     1.043375  s :     1.043375
      pz      :     0.935538  p :     2.868874
      px      :     0.976348
      py      :     0.956988
      dz2     :     0.017549  d :     0.128988
      dxz     :     0.025550
      dyz     :     0.017887
      dx2y2   :     0.033502
      dxy     :     0.034499

  4 C s       :     0.961094  s :     0.961094
      pz      :     0.996726  p :     2.914610
      px      :     0.938451
      py      :     0.979432
      dz2     :     0.011263  d :     0.086993
      dxz     :     0.018392
      dyz     :     0.009880
      dx2y2   :     0.020670
      dxy     :     0.026788

  5 C s       :     1.059651  s :     1.059651
      pz      :     0.878712  p :     2.555488
      px      :     0.966711
      py      :     0.710065
      dz2     :     0.024218  d :     0.185429
      dxz     :     0.035189
      dyz     :     0.028741
      dx2y2   :     0.046475
      dxy     :     0.050806

  6 F s       :     1.886079  s :     1.886079
      pz      :     1.814141  p :     5.316829
      px      :     1.929196
      py      :     1.573492
      dz2     :     0.003931  d :     0.023659
      dxz     :     0.001635
      dyz     :     0.007361
      dx2y2   :     0.006067
      dxy     :     0.004666

  7 C s       :     0.989694  s :     0.989694
      pz      :     1.050200  p :     3.027926
      px      :     0.970611
      py      :     1.007115
      dz2     :     0.015895  d :     0.111025
      dxz     :     0.022941
      dyz     :     0.014034
      dx2y2   :     0.026634
      dxy     :     0.031521

  8 C s       :     1.015463  s :     1.015463
      pz      :     1.013990  p :     2.939818
      px      :     0.978165
      py      :     0.947663
      dz2     :     0.031161  d :     0.130616
      dxz     :     0.037109
      dyz     :     0.022438
      dx2y2   :     0.018211
      dxy     :     0.021696

  9 C s       :     0.969431  s :     0.969431
      pz      :     0.991989  p :     2.873451
      px      :     0.887083
      py      :     0.994378
      dz2     :     0.022693  d :     0.086974
      dxz     :     0.020854
      dyz     :     0.010251
      dx2y2   :     0.013528
      dxy     :     0.019648

 10 C s       :     1.058079  s :     1.058079
      pz      :     0.806994  p :     2.511991
      px      :     0.812055
      py      :     0.892942
      dz2     :     0.046861  d :     0.188282
      dxz     :     0.050458
      dyz     :     0.031067
      dx2y2   :     0.024942
      dxy     :     0.034954

 11 F s       :     1.884623  s :     1.884623
      pz      :     1.680360  p :     5.307147
      px      :     1.721731
      py      :     1.905056
      dz2     :     0.005172  d :     0.023984
      dxz     :     0.008370
      dyz     :     0.003745
      dx2y2   :     0.003172
      dxy     :     0.003526

 12 C s       :     1.011131  s :     1.011131
      pz      :     1.014443  p :     3.045471
      px      :     0.923719
      py      :     1.107309
      dz2     :     0.021786  d :     0.098941
      dxz     :     0.026916
      dyz     :     0.018431
      dx2y2   :     0.015005
      dxy     :     0.016803

 13 C s       :     1.078861  s :     1.078861
      pz      :     0.771700  p :     2.357211
      px      :     0.869600
      py      :     0.715911
      dz2     :     0.046932  d :     0.279894
      dxz     :     0.045092
      dyz     :     0.038297
      dx2y2   :     0.069557
      dxy     :     0.080017

 14 O s       :     1.761940  s :     1.761940
      pz      :     1.381924  p :     4.477874
      px      :     1.747175
      py      :     1.348775
      dz2     :     0.009232  d :     0.038796
      dxz     :     0.003623
      dyz     :     0.010260
      dx2y2   :     0.008667
      dxy     :     0.007014

 15 O s       :     1.652954  s :     1.652954
      pz      :     1.706846  p :     4.528806
      px      :     1.236454
      py      :     1.585506
      dz2     :     0.005988  d :     0.042823
      dxz     :     0.008277
      dyz     :     0.005714
      dx2y2   :     0.011364
      dxy     :     0.011479

 16 C s       :     1.041906  s :     1.041906
      pz      :     1.018237  p :     2.724580
      px      :     0.703301
      py      :     1.003042
      dz2     :     0.035588  d :     0.171047
      dxz     :     0.049351
      dyz     :     0.017459
      dx2y2   :     0.032168
      dxy     :     0.036480

 17 C s       :     0.975307  s :     0.975307
      pz      :     0.967368  p :     2.886728
      px      :     0.923642
      py      :     0.995718
      dz2     :     0.017062  d :     0.083092
      dxz     :     0.022364
      dyz     :     0.010150
      dx2y2   :     0.013350
      dxy     :     0.020165

 18 C s       :     1.055941  s :     1.055941
      pz      :     0.770038  p :     2.570253
      px      :     0.896398
      py      :     0.903817
      dz2     :     0.045256  d :     0.184001
      dxz     :     0.048484
      dyz     :     0.026901
      dx2y2   :     0.027364
      dxy     :     0.035996

 19 F s       :     1.886048  s :     1.886048
      pz      :     1.639766  p :     5.320847
      px      :     1.841667
      py      :     1.839414
      dz2     :     0.006290  d :     0.023562
      dxz     :     0.006208
      dyz     :     0.005690
      dx2y2   :     0.002501
      dxy     :     0.002873

 20 C s       :     0.993355  s :     0.993355
      pz      :     1.012392  p :     2.995980
      px      :     0.974334
      py      :     1.009254
      dz2     :     0.026025  d :     0.118413
      dxz     :     0.034114
      dyz     :     0.014655
      dx2y2   :     0.020693
      dxy     :     0.022925

 21 C s       :     0.999327  s :     0.999327
      pz      :     0.960667  p :     2.951431
      px      :     0.984182
      py      :     1.006582
      dz2     :     0.012501  d :     0.128338
      dxz     :     0.021032
      dyz     :     0.021214
      dx2y2   :     0.037179
      dxy     :     0.036413

 22 C s       :     0.973823  s :     0.973823
      pz      :     0.982390  p :     2.876909
      px      :     0.908544
      py      :     0.985975
      dz2     :     0.006884  d :     0.088750
      dxz     :     0.020774
      dyz     :     0.010853
      dx2y2   :     0.027655
      dxy     :     0.022584

 23 C s       :     1.058081  s :     1.058081
      pz      :     0.944371  p :     2.587895
      px      :     0.901214
      py      :     0.742309
      dz2     :     0.016511  d :     0.183357
      dxz     :     0.032998
      dyz     :     0.032727
      dx2y2   :     0.049656
      dxy     :     0.051465

 24 F s       :     1.887887  s :     1.887887
      pz      :     1.877416  p :     5.303414
      px      :     1.827009
      py      :     1.598989
      dz2     :     0.003095  d :     0.023904
      dxz     :     0.002458
      dyz     :     0.005447
      dx2y2   :     0.005816
      dxy     :     0.007088

 25 C s       :     1.045666  s :     1.045666
      pz      :     1.012522  p :     2.585589
      px      :     0.643307
      py      :     0.929761
      dz2     :     0.014108  d :     0.175149
      dxz     :     0.045744
      dyz     :     0.018209
      dx2y2   :     0.039500
      dxy     :     0.057587

 26 F s       :     1.889119  s :     1.889119
      pz      :     1.914990  p :     5.296178
      px      :     1.435918
      py      :     1.945270
      dz2     :     0.002775  d :     0.024423
      dxz     :     0.007256
      dyz     :     0.000063
      dx2y2   :     0.008610
      dxy     :     0.005718

 27 C s       :     1.058069  s :     1.058069
      pz      :     0.939590  p :     2.584871
      px      :     0.904037
      py      :     0.741244
      dz2     :     0.016734  d :     0.182951
      dxz     :     0.033166
      dyz     :     0.032558
      dx2y2   :     0.049408
      dxy     :     0.051086

 28 F s       :     1.888168  s :     1.888168
      pz      :     1.869724  p :     5.304643
      px      :     1.831357
      py      :     1.603561
      dz2     :     0.003187  d :     0.023871
      dxz     :     0.002488
      dyz     :     0.005553
      dx2y2   :     0.005707
      dxy     :     0.006936

 29 C s       :     0.969177  s :     0.969177
      pz      :     0.992690  p :     2.916042
      px      :     0.924713
      py      :     0.998639
      dz2     :     0.007059  d :     0.088857
      dxz     :     0.020895
      dyz     :     0.010587
      dx2y2   :     0.027164
      dxy     :     0.023153

 30 C s       :     0.984783  s :     0.984783
      pz      :     0.980590  p :     2.883304
      px      :     0.965920
      py      :     0.936794
      dz2     :     0.018205  d :     0.097997
      dxz     :     0.030865
      dyz     :     0.010059
      dx2y2   :     0.014319
      dxy     :     0.024549

 31 C s       :     0.971081  s :     0.971081
      pz      :     0.979602  p :     2.898362
      px      :     0.954735
      py      :     0.964025
      dz2     :     0.017404  d :     0.090403
      dxz     :     0.029153
      dyz     :     0.010039
      dx2y2   :     0.012544
      dxy     :     0.021263

 32 C s       :     1.064781  s :     1.064781
      pz      :     0.705388  p :     2.519730
      px      :     0.947918
      py      :     0.866424
      dz2     :     0.047592  d :     0.189390
      dxz     :     0.055462
      dyz     :     0.035013
      dx2y2   :     0.019980
      dxy     :     0.031343

 33 F s       :     1.884409  s :     1.884409
      pz      :     1.515284  p :     5.297058
      px      :     1.920824
      py      :     1.860950
      dz2     :     0.009112  d :     0.024250
      dxz     :     0.005599
      dyz     :     0.007134
      dx2y2   :     0.001277
      dxy     :     0.001128

 34 C s       :     0.970454  s :     0.970454
      pz      :     0.963397  p :     2.877229
      px      :     0.930570
      py      :     0.983262
      dz2     :     0.019669  d :     0.086837
      dxz     :     0.027153
      dyz     :     0.011380
      dx2y2   :     0.012264
      dxy     :     0.016372

 35 C s       :     1.059478  s :     1.059478
      pz      :     0.910322  p :     2.556817
      px      :     0.819054
      py      :     0.827441
      dz2     :     0.023112  d :     0.185236
      dxz     :     0.037334
      dyz     :     0.024957
      dx2y2   :     0.051704
      dxy     :     0.048128

 36 F s       :     1.886048  s :     1.886048
      pz      :     1.886013  p :     5.318067
      px      :     1.712950
      py      :     1.719104
      dz2     :     0.003028  d :     0.023610
      dxz     :     0.004163
      dyz     :     0.003515
      dx2y2   :     0.005139
      dxy     :     0.007764

 37 C s       :     0.960937  s :     0.960937
      pz      :     1.011082  p :     2.914995
      px      :     0.915874
      py      :     0.988040
      dz2     :     0.007343  d :     0.087010
      dxz     :     0.020195
      dyz     :     0.011202
      dx2y2   :     0.027997
      dxy     :     0.020273

 38 H s       :     0.926329  s :     0.926329
      pz      :     0.019236  p :     0.044776
      px      :     0.010855
      py      :     0.014685

 39 H s       :     0.918764  s :     0.918764
      pz      :     0.017936  p :     0.045073
      px      :     0.013144
      py      :     0.013993

 40 H s       :     0.926415  s :     0.926415
      pz      :     0.011001  p :     0.044779
      px      :     0.014817
      py      :     0.018960

 41 H s       :     0.914731  s :     0.914731
      pz      :     0.019145  p :     0.043095
      px      :     0.010250
      py      :     0.013701

 42 H s       :     0.914170  s :     0.914170
      pz      :     0.010109  p :     0.043080
      px      :     0.013777
      py      :     0.019194

 43 H s       :     0.911592  s :     0.911592
      pz      :     0.010517  p :     0.044198
      px      :     0.013877
      py      :     0.019804

 44 H s       :     0.911879  s :     0.911879
      pz      :     0.020065  p :     0.044186
      px      :     0.009779
      py      :     0.014342

 45 H s       :     0.916800  s :     0.916800
      pz      :     0.015056  p :     0.051314
      px      :     0.017736
      py      :     0.018523

 46 H s       :     0.898980  s :     0.898980
      pz      :     0.025115  p :     0.052290
      px      :     0.010898
      py      :     0.016276

 47 H s       :     0.906266  s :     0.906266
      pz      :     0.021475  p :     0.051809
      px      :     0.014160
      py      :     0.016174

 48 H s       :     0.900237  s :     0.900237
      pz      :     0.015808  p :     0.052307
      px      :     0.014055
      py      :     0.022444

 49 H s       :     0.902065  s :     0.902065
      pz      :     0.015510  p :     0.052487
      px      :     0.014201
      py      :     0.022777

 50 H s       :     0.910912  s :     0.910912
      pz      :     0.021101  p :     0.051284
      px      :     0.014436
      py      :     0.015747

 51 H s       :     0.891103  s :     0.891103
      pz      :     0.020508  p :     0.054257
      px      :     0.016374
      py      :     0.017375

 52 H s       :     0.898359  s :     0.898359
      pz      :     0.019362  p :     0.052193
      px      :     0.018332
      py      :     0.014499

 53 H s       :     0.917079  s :     0.917079
      pz      :     0.017760  p :     0.051312
      px      :     0.010143
      py      :     0.023409



                     *******************************
                     * LOEWDIN POPULATION ANALYSIS *
                     *******************************

----------------------
LOEWDIN ATOMIC CHARGES
----------------------
   0 C :   -0.110629
   1 C :   -0.079739
   2 C :   -0.071045
   3 C :   -0.017494
   4 C :   -0.031179
   5 C :    0.048206
   6 F :   -0.065558
   7 C :   -0.038261
   8 C :   -0.016930
   9 C :   -0.016366
  10 C :    0.052569
  11 F :   -0.059257
  12 C :   -0.030884
  13 C :   -0.027228
  14 O :   -0.096678
  15 O :    0.033052
  16 C :   -0.008479
  17 C :   -0.010560
  18 C :    0.042467
  19 F :   -0.069023
  20 C :   -0.039276
  21 C :   -0.031756
  22 C :   -0.013520
  23 C :    0.038487
  24 F :   -0.060713
  25 C :    0.038361
  26 F :   -0.056063
  27 C :    0.037397
  28 F :   -0.062122
  29 C :   -0.021023
  30 C :   -0.013651
  31 C :   -0.027015
  32 C :    0.056535
  33 F :   -0.050450
  34 C :   -0.015382
  35 C :    0.048099
  36 F :   -0.066727
  37 C :   -0.031522
  38 H :    0.043153
  39 H :    0.046543
  40 H :    0.043167
  41 H :    0.045677
  42 H :    0.045836
  43 H :    0.053495
  44 H :    0.053379
  45 H :    0.054194
  46 H :    0.058907
  47 H :    0.061033
  48 H :    0.058687
  49 H :    0.057295
  50 H :    0.055811
  51 H :    0.052980
  52 H :    0.059139
  53 H :    0.054062

-------------------------------
LOEWDIN REDUCED ORBITAL CHARGES
-------------------------------
  0 C s       :     0.766786  s :     0.766786
      pz      :     1.064893  p :     3.098514
      px      :     0.971501
      py      :     1.062121
      dz2     :     0.039889  d :     0.245329
      dxz     :     0.043443
      dyz     :     0.055865
      dx2y2   :     0.036484
      dxy     :     0.069648

[...]
  28 F       0.101330     -0.017152     -0.090425     -0.015399      0.004646     -0.111040      0.061082      0.035841      0.072112      0.054929
  29 C       0.585967     -0.195314     -0.114440     -0.195251     -0.036181     -0.239383      0.129251     -0.024719      0.084697     -0.004123
  30 C      -0.490353      0.056089      0.175552      0.017146      0.105297      0.090238     -0.147845      0.222710      0.053315     -0.168021
  31 C       0.567757     -0.001123      0.287959      0.023196      0.087328     -0.114858      0.120395     -0.274828      0.108662     -0.179441
  32 C      -0.327583     -0.113323      0.020620     -0.111858      0.286819     -0.057042     -0.056089      0.166855      0.047897      0.046312
  33 F      -0.004934      0.060924      0.109078      0.009045     -0.051424     -0.003224      0.039870     -0.090155     -0.051218     -0.111834
  34 C       0.598801      0.122253      0.300372      0.198968     -0.096047     -0.007674      0.060840     -0.187933      0.030677     -0.179411
  35 C      -0.469157      0.277648     -0.060688     -0.132044      0.125907      0.104738     -0.092762     -0.081698     -0.107182      0.122412
  36 F      -0.057917     -0.076115      0.112522      0.081205     -0.022368     -0.088030      0.066021      0.027989     -0.022941     -0.053080
  37 C       0.314502     -0.064006      0.063807      0.363485     -0.208071     -0.144967      0.059788      0.026033     -0.044195     -0.070979
  38 H      -0.015910      0.028225     -0.040086      0.014217     -0.014887     -0.015907     -0.002910     -0.009991     -0.013400      0.003574
  39 H       0.002445      0.027448      0.057487      0.014505      0.015241     -0.008545     -0.000947     -0.004914      0.021175      0.001631
  40 H       0.009451     -0.052525      0.002146     -0.013929     -0.003998     -0.002312     -0.000787     -0.004903      0.002904     -0.025890
  41 H       0.004625     -0.051925      0.025714     -0.021585      0.011509      0.008306      0.003496      0.006774      0.007629     -0.010360
  42 H      -0.029310      0.045707     -0.024933      0.013776     -0.005143     -0.001920      0.001748     -0.002311     -0.008532      0.023240
  43 H       0.025548     -0.039283      0.023520     -0.011214      0.003773      0.004660     -0.003213      0.004107      0.005677     -0.020464
  44 H       0.000528      0.048895     -0.024342      0.015638     -0.009314     -0.006527     -0.003317     -0.005886     -0.006226      0.009971
  45 H       0.041669     -0.026323      0.009039     -0.007808      0.004102      0.011653      0.000182      0.009663      0.005631     -0.009218
  46 H       0.025987      0.012657     -0.043866      0.006063     -0.017760      0.005076     -0.000610      0.006809     -0.013232      0.007178
  47 H       0.028541      0.015864     -0.035416      0.005973     -0.011630      0.007940     -0.000156      0.008486     -0.011582      0.008112
  48 H       0.037103      0.039559     -0.011806      0.014963     -0.003227      0.009351     -0.000380      0.007723     -0.006375      0.012264
  49 H       0.033924     -0.041868      0.004012     -0.016607      0.000081      0.009494     -0.000619      0.008369      0.003746     -0.013145
  50 H      -0.035957     -0.014153      0.045376     -0.004869      0.019119     -0.007595     -0.000756     -0.005891      0.015544     -0.009194
  51 H       0.029948     -0.028973      0.041537     -0.008455      0.016600      0.008281     -0.000585      0.005378      0.014259     -0.012626
  52 H       0.046270     -0.003544      0.031897      0.002097      0.010668      0.011436     -0.000744      0.012780      0.009634     -0.003120
  53 H       0.019196      0.037144     -0.018270      0.016235     -0.006686      0.004998     -0.000364      0.004994     -0.008700      0.011589

 MBIS THIRD RADIAL MOMENT (A.U.):
  ATOM      <r^3>
   0 C   44.303205
   1 C   40.825272
   2 C   41.883278
   3 C   33.496610
   4 C   41.042738
   5 C   29.766406
   6 F   18.079693
   7 C   38.859151
   8 C   32.194758
   9 C   40.505829
  10 C   28.916250
  11 F   18.090635
  12 C   41.932581
  13 C   22.333547
  14 O   25.784378
  15 O   23.900147
  16 C   29.543038
  17 C   41.032495
  18 C   29.888510
  19 F   18.114382
  20 C   37.140065
  21 C   33.521044
  22 C   39.681805
  23 C   31.619396
  24 F   18.093284
  25 C   33.828911
  26 F   17.901851
  27 C   31.641038
  28 F   18.104524
  29 C   39.922961
  30 C   36.408109
  31 C   39.890686
  32 C   28.777724
  33 F   18.098225
  34 C   40.467960
  35 C   29.795221
  36 F   18.092178
  37 C   41.058301
  38 H    2.378941
  39 H    2.353419
  40 H    2.378958
  41 H    2.288140
  42 H    2.286361
  43 H    2.211154
  44 H    2.212258
  45 H    2.016782
  46 H    1.912207
  47 H    1.903245
  48 H    1.925246
  49 H    1.967086
  50 H    2.130357
  51 H    1.915244
  52 H    1.909276
  53 H    2.017609

-------------------------
RESP CHARGES GENERATION
-------------------------
Number of atoms                    ...           54
Number of "pure atoms"             ...           54
Grid spacing                       ...     0.300000
Point Cut-Off                      ...     2.800000
Van-der-Waals Radii                ...        COSMO
Total charge                       ...            0
Penalty function                   ... hyperbolic
Penalty function wa                ... 0.000500
Penalty function wb                ... 0.100000
Dipole moment constraint           ...        FALSE
Equivalent atom charge constraint  ...        FALSE

Grid generated                     ...      0.0 sec
Grid points                        ...        28326
Potential calculated               ...     10.5 sec
RespFile stored                    ...           ok

Iter     dqmax
--------------

0     0.892795
1     0.038668
2     0.004837
3     0.000638
4     0.000084
5     0.000011
6     0.000001
7     0.000000

Charges calculated                 ...      1.6 sec

RESP Charges            
--------------------------------
  0   C   :      -0.454266
  1   C   :       0.255867
  2   C   :      -0.097098
  3   C   :       0.095579
  4   C   :      -0.404214
  5   C   :       0.347683
  6   F   :      -0.195415
  7   C   :      -0.243830
  8   C   :       0.419288
  9   C   :      -0.526492
 10   C   :       0.509657
 11   F   :      -0.211120
 12   C   :      -0.566942
 13   C   :       0.886938
 14   O   :      -0.521909
 15   O   :      -0.382868
 16   C   :       0.430851
 17   C   :      -0.454333
 18   C   :       0.336992
 19   F   :      -0.196414
 20   C   :      -0.008322
 21   C   :       0.137989
 22   C   :      -0.433530
 23   C   :       0.334739
 24   F   :      -0.188985
 25   C   :       0.086451
 26   F   :      -0.148961
 27   C   :       0.303284
 28   F   :      -0.183302
 29   C   :      -0.412141
 30   C   :      -0.151952
 31   C   :      -0.399714
 32   C   :       0.534376
 33   F   :      -0.214705
 34   C   :      -0.536742
 35   C   :       0.343243
 36   F   :      -0.200827
 37   C   :      -0.400490
 38   H   :       0.107138
 39   H   :       0.110232
 40   H   :       0.107398
 41   H   :      -0.016696
 42   H   :      -0.015858
 43   H   :       0.062887
 44   H   :       0.061719
 45   H   :       0.223158
 46   H   :       0.250393
 47   H   :       0.250008
 48   H   :       0.244916
 49   H   :       0.233940
 50   H   :       0.176568
 51   H   :       0.242126
 52   H   :       0.250004
 53   H   :       0.223703
--------------------------------
Total charge:     0.000000
--------------------------------

RESP charges calculated...

Timings:
Grid generation                 ...        0.020 sec (=   0.000 min)
Potential calculation           ...       10.545 sec (=   0.176 min)
Fit to the potential            ...        1.649 sec (=   0.027 min)
------------------------------------------------------------------------------

-------
TIMINGS
-------

Total SCF time: 0 days 0 hours 12 min 21 sec 

Total time                  ....     741.304 sec
Sum of individual times     ....     718.528 sec  ( 96.9%)

SCF preparation             ....       3.439 sec  (  0.5%)
Fock matrix formation       ....     589.733 sec  ( 79.6%)
  Startup                   ....       0.118 sec  (  0.0% of F)
  Split-RI-J                ....      45.554 sec  (  7.7% of F)
  Chain of spheres X        ....     546.137 sec  ( 92.6% of F)
  XC integration            ....      19.427 sec  (  3.3% of F)
    Basis function eval.    ....       4.846 sec  ( 24.9% of XC)
    Density eval.           ....       4.192 sec  ( 21.6% of XC)
    XC-Functional eval.     ....       1.178 sec  (  6.1% of XC)
    XC-Potential eval.      ....       5.159 sec  ( 26.6% of XC)
Diagonalization             ....       0.000 sec  (  0.0%)
Density matrix formation    ....       0.619 sec  (  0.1%)
Total Energy calculation    ....       0.376 sec  (  0.1%)
Population analysis         ....     120.160 sec  ( 16.2%)
Orbital Transformation      ....       0.473 sec  (  0.1%)
Orbital Orthonormalization  ....       0.000 sec  (  0.0%)
DIIS solution               ....       2.674 sec  (  0.4%)
SOSCF solution              ....       1.053 sec  (  0.1%)
Finished LeanSCF after 741.4 sec

Maximum memory used throughout the entire LEANSCF-calculation: 117.0 MB


-------------------------------------------------------------------------------
                          DFT DISPERSION CORRECTION                            
                                                                               
                                DFTD4 V3.4.0                                   
-------------------------------------------------------------------------------
The wB97X-3c composite method is recognized
Using three-body term ABC
Active option DFTDOPT                   ...         5   

-------------------------   ----------------
Dispersion correction           -0.087662992
-------------------------   ----------------


-------------------------   --------------------
FINAL SINGLE POINT ENERGY      -395.799762966510
-------------------------   --------------------



           ************************************************************
           *        Program running with 4 parallel MPI-processes     *
           *              working on a common directory               *
           ************************************************************

------------------------------------------------------------------------------
                              ORCA PROPERTY CALCULATIONS
------------------------------------------------------------------------------

GBWName                                 ... conf_012.gbw
Number of atoms                         ...     54
Number of basis functions               ...    574
Max core memory                         ...   4000 MB

Electric properties:
Dipole moment                           ... YES
Quadrupole moment                       ...  NO
Static polarizability (Dipole/Dipole)   ...  NO
Static polarizability (Dipole/Quad.)    ...  NO
Static polarizability (Quad./Quad.)     ...  NO
Static polarizability (Velocity)        ...  NO
Static hyperpolarizability              ...  NO

Atomic electric properties:
Dipole moment                           ...  NO
Quadrupole moment                       ...  NO
Static polarizability                   ...  NO

Choice of electric origin               ... Center of mass
Position of electric origin             ...    -2.932637    -0.407956     0.180546

General magnetic properties:
Magnetizability                         ...  NO

EPR properties:
g-Tensor (aka g-matrix)                 ...  NO
Zero-Field splitting spin-orbit         ...  NO
Zero-field splitting spin-spin          ...  NO
Hyperfine couplings                     ...  NO (   0 nuclei)
Quadrupole couplings                    ...  NO (   0 nuclei)
Contact density                         ...  NO (   0 nuclei)

NMR properties:
Chemical shifts                         ...  NO (   0 nuclei)
Spin-rotation constants                 ...  NO (   0 nuclei)
Spin-spin couplings                     ...  NO (   0 nuclei,    0 pairs)

Choice of magnetic origin               ... GIAO
Position of magnetic origin             ...     0.000000     0.000000     0.000000

Properties with geometric perturbations:
SCF Hessian                             ...  NO
IR spectrum                             ...  NO
VCD spectrum                            ...  NO
X-ray spectroscopy properties:
SCF XES/XAS/RIXS spectra                ...  NO

SCF SOC stabilization energy            ...  NO
Diagonal Born-Oppenheimer correction    ...  NO

-------------
DIPOLE MOMENT
-------------

Method             : SCF
Type of density    : Electron Density
Multiplicity       :   1
Irrep              :   0
Energy             :  -395.7120999742115259 Eh
Basis              : AO
                                X                 Y                 Z
Electronic contribution:    -70.628514458     -10.782651293       2.349087004
Nuclear contribution   :     74.380091345      11.545680367      -2.574939403
                        -----------------------------------------
Total Dipole Moment    :      3.751576887       0.763029074      -0.225852399
                        -----------------------------------------
Magnitude (a.u.)       :      3.835042609
Magnitude (Debye)      :      9.747903634



--------------------
Rotational spectrum 
--------------------
 
Rotational constants in cm-1:             0.012689             0.000757             0.000728 
Rotational constants in MHz :           380.416212            22.696409            21.825502 

Dipole components along the rotational axes: 
x,y,z [a.u.] :    -3.789203    -0.487700    -0.334128 
x,y,z [Debye]:    -9.631388    -1.239636    -0.849285 

 

Dipole moment calculation done in   0.0 sec 

Maximum memory used throughout the entire PROP-calculation: 57.6 MB

--------------------------------
SUGGESTED CITATIONS FOR THIS RUN
--------------------------------

Below you find a list of papers that are relevant to this ORCA run
We neither can nor want to force you to cite these papers, but we appreciate if you do
You receive ORCA, which is the product of decades of hard work by many enthusiastic individuals, for free
The only thing we kindly ask in return is that you cite our papers,
We deeply appreciate it, if you show your appreciation for ORCA by not just citing the generic ORCA reference.

Please note that relegating all ORCA citations to the supporting information does *not* help us.
SI sections are not indexed - citations you put there will not count into any citation statistics
But we need these citations in order to attract the funding resources that allow us to do what we are doing

Therefore, if you are a happy ORCA user, please consider citing a few of the papers listed below in the main body of your paper

In addition to the list printed below, the program has created the file conf_012.bibtex that contains the list in bibtex format
You can import this file easily into all common literature databanks and citation aid programs


List of essential papers. We consider these as the minimum necessary citations

  1. Mueller, M.; Hansen, A.; Grimme, S.
     wB97X-3c: A composite range-separated hybrid DFT method with a molecule-optimized polarized valence double-zeta basis set
     J. Chem. Phys. 2023 158 , 014103
     doi.org/10.1063/5.0133026
  2. Neese, F.
     Software update: the ORCA program system, version 6.0
     WIRES Comput. Molec. Sci. 2025 15(1), e70019
     doi.org/10.1002/wcms.7019

List of papers to cite with high priority. The work reported in these papers was absolutely
necessary for this run to complete.
Our perspective: the developers of density functionals and basis sets usually get cited in chemistry papers
Good! But without the algorithms to do something with them, the functionals or basis sets would not do anything.
Hence, in our opinion, the algorithm design and method developments papers are equally worthy of getting cited

  1. Neese, F.
     An improvement of the resolution of the identity approximation for the formation of the Coulomb matrix
     J. Comp. Chem. 2003 24(14), 1740-1747
     doi.org/10.1002/jcc.10318
  2. Neese, F.; Wennmohs, F.; Hansen, A.; Becker, U.
     Efficient, approximate and parallel Hartree-Fock and hybrid DFT calculations. A 'chain-of-spheres' algorithm for the Hartree-Fock exchange
     Chem. Phys. 2009 356(1-3), 98-109
     doi.org/10.1016/j.chemphys.2008.10.036
  3. Caldeweyher, E.; Bannwarth, C.; Grimme, S.
     Extension of the D3 dispersion coefficient model
     J. Chem. Phys. 2017 147 , 034112
     doi.org/10.1063/1.4993215
  4. Caldeweyher, E.; Ehlert, S.; Hansen, A.; Neugebauer, H.; Spicher, S.; Bannwarth, C.; Grimme, S.
     A generally applicable atomic-charge dependent London dispersion correction
     J. Chem. Phys. 2019 150 , 154122
     doi.org/10.1063/1.5090222
  5. Caldeweyher, E.; Mewes, J.; Ehlert, S.; Grimme, S.
     Extension and evaluation of the D4 London-dispersion model for periodic systems
     Phys. Chem. Chem. Phys. 2020 22(16), 8499-8512
     doi.org/10.1039/D0CP00502A
  6. Helmich-Paris, B.; de Souza, B.; Neese, F.; Izsák, R.
     An improved chain of spheres for exchange algorithm
     J. Chem. Phys. 2021 155(10), 104109
     doi.org/10.1063/5.0058766
  7. Neese, F.
     The SHARK Integral Generation and Digestion System
     J. Comp. Chem. 2022 44(3), 381
     doi.org/10.1002/jcc.26942
  8. Wittmann, L.; Gordiy, I.; Friede, M.; Helmich-Paris, B.; Grimme, S.; Hansen, A.; Bursch, M.
     Extension of the D3 and D4 London Dispersion Corrections to the full Actinides Series
     Phys. Chem. Chem. Phys. 2024 26(32), 21379-21394
     doi.org/10.1039/D4CP01514B

List of suggested additional citations. These are papers that are important in the 'surrounding' of 
of this run, or papers that preceded the highly important papers. If you like your results we are grateful for a citation.

  1. Izsak, R.; Neese, F.
     An overlap fitted chain of spheres exchange method
     J. Chem. Phys. 2011 135 , 144105
     doi.org/10.1063/1.3646921
  2. Izsak, R.; Hansen, A.; Neese, F.
     The resolution of identity and chain of spheres approximations for the LPNO-CCSD singles Fock term
     Molec. Phys. 2012 110 , 2413-2417
     doi.org/10.1080/00268976.2012.687466
  3. Neese, F.
     The ORCA program system
     WIRES Comput. Molec. Sci. 2012 2(1), 73-78
     doi.org/10.1002/wcms.81
  4. Izsak, R.; Neese, F.; Klopper, W.
     Robust fitting techniques in the chain of spheres approximation to the Fock exchange: The role of the complementary space
     J. Chem. Phys. 2013 139 , 
     doi.org/10.1063/1.4819264
  5. Neese, F.
     Software update: the ORCA program system, version 4.0
     WIRES Comput. Molec. Sci. 2018 8(1), 1-6
     doi.org/10.1002/wcms.1327
  6. Neese, F.; Wennmohs, F.; Becker, U.; Riplinger, C.
     The ORCA quantum chemistry program package
     J. Chem. Phys. 2020 152(22), 224108
     doi.org/10.1063/5.0004608
  7. Neese, F.
     Software update: The ORCA program system—Version 5.0
     WIRES Comput. Molec. Sci. 2022 12(1), e1606
     doi.org/10.1002/wcms.1606

List of optional additional citations

  1. Neese, F.
     Approximate second-order SCF convergence for spin unrestricted wavefunctions
     Chem. Phys. Lett. 2000 325(1-3), 93-98
     doi.org/10.1016/s0009-2614(00)00662-x

Timings for individual modules:

Sum of individual times          ...      768.316 sec (=  12.805 min)
Startup calculation              ...       13.752 sec (=   0.229 min)   1.8 %
SCF iterations                   ...      752.624 sec (=  12.544 min)  98.0 %
Property calculations            ...        1.940 sec (=   0.032 min)   0.3 %
                             ****ORCA TERMINATED NORMALLY****
TOTAL RUN TIME: 0 days 0 hours 12 minutes 50 seconds 178 msec
