Loading openmpi/5.0.6/gcc-14.2.0
  Loading requirement: gcc/14.2.0

                                 *****************
                                 * O   R   C   A *
                                 *****************

                                            #,                                       
                                            ###                                      
                                            ####                                     
                                            #####                                    
                                            ######                                   
                                           ########,                                 
                                     ,,################,,,,,                         
                               ,,#################################,,                 
                          ,,##########################################,,             
                       ,#########################################, ''#####,          
                    ,#############################################,,   '####,        
                  ,##################################################,,,,####,       
                ,###########''''           ''''###############################       
              ,#####''   ,,,,##########,,,,          '''####'''          '####       
            ,##' ,,,,###########################,,,                        '##       
           ' ,,###''''                  '''############,,,                           
         ,,##''                                '''############,,,,        ,,,,,,###''
      ,#''                                            '''#######################'''  
     '                                                          ''''####''''         
             ,#######,   #######,   ,#######,      ##                                
            ,#'     '#,  ##    ##  ,#'     '#,    #''#        ,####,    ,#,          
            ##       ##  ##   ,#'  ##            #'  '#       #'       ,# #          
            ##       ##  #######   ##           ,######,      #####,      #          
            '#,     ,#'  ##    ##  '#,     ,#' ,#      #,     #,   #      #          
             '#######'   ##     ##  '#######'  #'      '#     '####' #    #          



                #########################################################
                #                        -***-                          #
                #          Department of theory and spectroscopy        #
                #                                                       #
                #                      Frank Neese                      #
                #                                                       #
                #     Directorship, Architecture, Infrastructure        #
                #                    SHARK, DRIVERS                     #
                #        Core code/Algorithms in most modules           #
                #                                                       #
                #        Max Planck Institute fuer Kohlenforschung      #
                #                Kaiser Wilhelm Platz 1                 #
                #                 D-45470 Muelheim/Ruhr                 #
                #                      Germany                          #
                #                                                       #
                #                  All rights reserved                  #
                #                        -***-                          #
                #########################################################


                         Program Version 6.1.0  -  RELEASE   -
                                (GIT: $679e74b$)
                          ($2025-06-10 18:02:51 +0200$)


 With contributions from (in alphabetic order):
[Max-Planck-Institut fuer Kohlenforschung]                               
  Daniel Aravena         : Magnetic Suceptibility                        
  Michael Atanasov       : Ab Initio Ligand Field Theory (pilot matlab implementation)
  Alexander A. Auer      : GIAO ZORA, VPT2 properties, NMR spectrum      
  Ute Becker             : All parallelization in ORCA, NUMFREQ, NUMCALC 
  Giovanni Bistoni       : ED, misc. LED, open-shell LED, HFLD           
  Dmytro Bykov           : pre 5.0 version of the SCF Hessian            
  Marcos Casanova-Páez   : Triplet and SCS-CIS(D). UHF-(DLPNO)-IP/EA/STEOM-CCSD. UHF-CVS-IP/STEOM-CCSD   
  Vijay G. Chilkuri      : MRCI spin determinant printing, contributions to CSF-ICE 
  Pauline Colinet        : FMM embedding                                 
  Dipayan Datta          : RHF DLPNO-CCSD density                        
  Achintya Kumar Dutta   : EOM-CC, STEOM-CC                              
  Nicolas Foglia         : Exact transition moments, OPA infrastructure, MCD improvements    
  Dmitry Ganyushin       : Spin-Orbit,Spin-Spin,Magnetic field MRCI      
  Miquel Garcia-Rates    : C-PCM and meta-GGA Hessian, CCSD/C-PCM, Gaussian charge scheme 
  Tiago L. C. Gouveia    : GS-ROHF, GS-ROCIS                             
  Yang Guo               : DLPNO-NEVPT2, F12-NEVPT2, CIM, IAO-localization        
  Andreas Hansen         : Spin unrestricted coupled pair/coupled cluster methods 
  Ingolf Harden          : AUTO-CI MPn and infrastructure                
  Benjamin Helmich-Paris : MC-RPA, TRAH-(SCF,CASSCF), AVAS, COSX integrals, SCF dyn. polar., MC-PDFT, srDFT 
  Lee Huntington         : MR-EOM, pCC                                   
  Robert Izsak           : Overlap fitted RIJCOSX, COSX-SCS-MP3, EOM     
  Riya Kayal             : Wick's Theorem for AUTO-CI, AUTO-CI UHF-CCSDT 
  Emily Kempfer          : AUTO-CI RHF CISDT and CCSDT, approximate NEVPT4
  Christian Kollmar      : KDIIS, OOCD, Brueckner-CCSD(T), CCSD density, CASPT2, CASPT2-K, improved NEVPT2 
  Axel Koslowski         : Symmetry handling                             
  Simone Kossmann        : meta-GGA functionals, TD-DFT gradient, OOMP2, (MP2 Hessian; deprecated post 5.0) 
  Lucas Lang             : DCDCAS, Hyperfine gauge corrections, ICE-SOC+SSC
  Marvin Lechner         : AUTO-CI (C++ implementation), FIC-MRCC        
  Spencer Leger          : CASSCF response                               
  Dagmar Lenk            : GEPOL surface, SMD, ORCA-2-JSON               
  Dimitrios Liakos       : Extrapolation schemes; Compound Job, Property file
  Dimitrios Manganas     : Further ROCIS development; embedding schemes. LFT, Crystal Embedding 
  Dimitrios Pantazis     : SARC Basis sets                               
  Anastasios Papadopoulos: AUTO-CI, single reference methods and gradients 
  Taras Petrenko         : pre 6.0 DFT Hessian and TD-DFT gradient,  ECA, NRVS 
  Petra Pikulova         : Analytic Raman intensities                    
  Peter Pinski           : DLPNO-MP2, DLPNO-MP2 Gradient                 
  Shashank Vittal Rao    : ES-AILFT, MagRelax                            
  Christoph Reimann      : Effective Core Potentials                     
  Marius Retegan         : Local ZFS, SOC                                
  Christoph Riplinger    : Optimizer, TS searches, QM/MM, DLPNO-CCSD(T), (RO)-DLPNO pert. Triples 
  Michael Roemelt        : Original ROCIS implementation, recursive CI coupling coefficients
  Masaaki Saitow         : Open-shell DLPNO-CCSD energy and density      
  Barbara Sandhoefer     : DKH picture change effects                    
  Yorick L. A. Schmerwitz: GMF and freeze-and-release deltaSCF, NEB S-IDPP initial path                    
  Kantharuban Sivalingam : CASSCF convergence/infrastructure, NEVPT2, NEVPT3, NEVPT4(SD), FIC-MRCI and CEPA variants
  Bernardo de Souza      : ESD, SOC TD-DFT                               
  Georgi L. Stoychev     : AutoAux, RI-MP2 NMR, DLPNO-MP2 response, X2C  
  Van Anh Tran           : RI-MP2 g-tensors                              
  Willem Van den Heuvel  : Paramagnetic NMR                              
  Zikuan Wang            : NOTCH, Electric field optimization            
  Frank Wennmohs         : Technical directorship and infrastructure     
  Hang Xu                : AUTO-CI-Response properties                   
                                                                         
[FACCTs GmbH]                                                            
  Markus Bursch, Nicolas Foglia, Miquel Garcia-Rates, Ingolf Harden, Hagen Neugebauer, Anastasios Papadopoulos, 
  Christoph Riplinger, Bernardo de Souza, Georgi L. Stoychev                                                    
                                                                 
  APM, various basis sets, CI-OPT, improved COSX, DLPNO-Multilevel,           
  DOCKER, DRACO, updates on ESD, Fragmentator, GOAT, IRC, LR-CPCM, L-BFGS, MBIS, meta-GGA TD-DFT gradient, ML-optimized integration grids, 
  MM, NACMEs, nearIR, NEB, NEB-TS, NL-DFT gradient (VV10), 2- and 3-layer-ONIOM, interface openCOSMO-RS, QMMM,   
  Crystal-QMMM, RESP, rigid body optimization, SF, symmetry and pop. for TD-DFT, various functionals, SOLVATOR                                   
                                                                         
[Other institutions]                                                     
  V. Asgeirsson          : NEB                                           
  Christoph Bannwarth    : sTDA-DFT, sTD-DFT, PBEh-3c, B97-3c, D3        
  Giovanni Bistoni       : ETS/NOCV, ADLD/ADEX, COVALED                  
  Martin Brehm           : Molecular dynamics                            
  Ronald Cardenas        : ETS/NOCV                                      
  Martina Colucci        : COVALED                                       
  Sebastian Ehlert       : rSCAN, r2SCAN, r2SCAN-3c, D4, dhf basis sets  
  Marvin Friede          : D4 for Fr, Ra, Ac-Lr                          
  Lars Goerigk           : TD-DFT with DH, B97 family of functionals     
  Stefan Grimme          : VdW corrections, initial TS optimization, DFT functionals, gCP, sTDA/sTD-DF 
  Waldemar Hujo          : DFT-NL                                        
  H. Jonsson             : NEB                                           
  Holger Kruse           : gCP                                           
  Marcel Mueller         : wB97X-3c, vDZP basis set                      
  Hagen Neugebauer       : wr2SCAN, Native XTB                           
  Gianluca Regni         : ADLD/ADEX                                     
  Tobias Risthaus        : pre 6.0 range-separated hybrid DFT and stability analysis
  Lukas Wittmann         : regularized MP2, r2SCAN double-hybrids, wr2SCAN        
                                                                         
We gratefully acknowledge several colleagues who have allowed us to      
interface, adapt or use parts of their codes:                            
  Ed Valeev, F. Pavosevic, A. Kumar             : LibInt (2-el integral package), F12 methods 
  Garnet Chan, S. Sharma, J. Yang, R. Olivares  : DMRG                   
  Ulf Ekstrom                                   : XCFun DFT Library      
  Mihaly Kallay                                 : mrcc  (arbitrary order and MRCC methods)
  Frank Weinhold                                : gennbo (NPA and NBO analysis)           
  Simon Mueller                                 : openCOSMO-RS                            
  Christopher J. Cramer and Donald G. Truhlar   : smd solvation model                     
  S Lehtola, MJT Oliveira, MAL Marques          : LibXC Library                           
  Liviu Ungur et al                             : ANISO software                          


 Your calculation uses the libint2 library for the computation of 2-el integrals
 For citations please refer to: http://libint.valeyev.net

 Your ORCA version has been built with support for libXC version: 7.0.0
 For citations please refer to: https://libxc.gitlab.io

 This ORCA versions uses:
   CBLAS   interface :  Fast vector & matrix operations
   LAPACKE interface :  Fast linear algebra routines
   SCALAPACK package :  Parallel linear algebra routines
   Shared memory     :  Shared parallel matrices
   BLAS/LAPACK       :  OpenBLAS 0.3.29  USE64BITINT DYNAMIC_ARCH NO_AFFINITY Cooperlake SINGLE_THREADED
        Core in use  :  Cooperlake
   Copyright (c) 2011-2014, The OpenBLAS Project


  ***********************************
  * Starting time: Wed May 13 14:54:46 2026
  * Host name:     node045.aire.lee.alces.network
  * Process ID:    972918
  * Working dir.:  /tmp/job.4919717
  ***********************************

NOTE: MaxCore=4000 MB was set to SCF,MP2,MDCI,CIPSI,MRCI,RASCI and CIS
      => If you want to overwrite this, your respective input block should be placed after the MaxCore statement


***************************************
The coordinates will be read from file: conf_016.xyz
***************************************


Your calculation utilizes the atom-pairwise dispersion correction
based on EEQ partial charges (D4)


================================================================================

cite the ECPs for C  [vDZP-ECP], F  [vDZP-ECP], O  [vDZP-ECP] as follows:
   B-Ne (ecp-2-mwb), Al-Ar (ecp-10-mwb), Ga-Kr (ecp-28-mwb), Y-Cd (ecp-28-mwb), In-Xe (ecp-46-mwb):
     A. Bergner, M. Dolg, W. Küchle, H. Stoll, and H. Preuß, Mol. Phys. 80, 1431 (1993)., T. Leininger, A. Berning, A. Nicklass, H. Stoll, H.-J. Werner, and H.-J.Flad, Chem. Phys. 217, 19 (1997).
   Na-Mg, K-Ca, Rb-Sr, Cs-Ba (CRENBL):
     L. Fernandez Pacios and P. A. Christiansen, J. Chem. Phys. 82, 2664 (1985)., M. M. Hurley, L. F. Pacios, P. A. Christiansen, R. B. Ross, and W. C. Ermler, J. Chem. Phys. 84, 6840 (1986)., L. A. LaJohn, P. A. Christiansen, R. B. Ross, T. Atashroo, and W. C. Ermler, J. Chem. Phys. 87, 2812 (1987)., R. B. Ross, J. M. Powers, T. Atashroo, W. C. Ermler, L. A. LaJohn, and P. A. Christiansen, J. Chem. Phys. 93, 6654 (1990). 
   Sc-Zn (ecp-10-mdf):
     M. Dolg, U. Wedig, H. Stoll, and H. Preuss, J. Chem. Phys. 86, 866 (1986). 
   Y-Cd (ecp-28-mwb), Hf-Hg (ecp-60-mwb):
     D. Andrae, U. Häußermann, M. Dolg, H. Stoll, and H. Preuß, Theor. Chim. Acta 77, 123 (1990). 
   La (ecp-46-mwb):
     M. Dolg, H. Stoll, and H. Preuss, J. Chem. Phys. 90, 1730 (1989)., M. Dolg, H. Stoll, and H. Preuss, Theor. Chim. Acta 85, 441 (1993).
   Ce-Lu (SBKJC-ecp):
     T. R. Cundari and W. J. Stevens, J. Chem. Phys. 98, 5555 (1993).
   Tl-Rn (ecp-78-mwb):
     W. Küchle, M. Dolg, H. Stoll, and H. Preuss, Mol. Phys. 74, 1245 (1991).

ECP parameters for C  [vDZP-ECP], F  [vDZP-ECP], O  [vDZP-ECP] have been obtained from:
MM, AH, SG, J. Chem. Phys. 158, 014103 (2023), 10.1063/5.0133026

----- Orbital basis set information -----
Your calculation utilizes the basis: vDZP
   Marcel Mueller, Andreas Hansen, Stefan Grimme 
   J. Chem. Phys. 158, 014103 (2023). DOI: 10.1063/5.0133026

----- AuxJ basis set information -----
Your calculation utilizes the auxiliary basis: def2/J
   H-Rn: F. Weigend, Phys. Chem. Chem. Phys. 8, 1057 (2006).
   Fr-Lr: K. Eichkorn, F. Weigend, O. Treutler, R. Ahlrichs; Theor. Chem. Acc. 97, 119 (1997).

================================================================================
                                        WARNINGS
                       Please study these warnings very carefully!
================================================================================

WARNING: Frozen-Core approximation turned on, but there are no core electrons.
  ===> : Turning off frozen-core approximation


================================================================================
                                       INPUT FILE
================================================================================
NAME = conf_016.inp
|  1> ! wb97x-3c mbis hirshfeld chelpg resp
|  2> %pal nprocs 4 end
|  3> %maxcore 4000
|  4> %method
|  5> 	   MBIS_LARGEPRINT TRUE
|  6> 	end
|  7> #conf_016
|  8> * xyzfile 0 1 conf_016.xyz
|  9> 
| 10>                          ****END OF INPUT****
================================================================================

                       ****************************
                       * Single Point Calculation *
                       ****************************

---------------------------------
CARTESIAN COORDINATES (ANGSTROEM)
---------------------------------
  C     10.423818   -0.472121   -0.149976
  C      8.908458   -0.443482   -0.295758
  C      8.328089    0.907866    0.145292
  C      6.839109    0.912953   -0.008199
  C      6.250379    1.303397   -1.204445
  C      4.878060    1.265406   -1.345905
  F      4.352756    1.639626   -2.526786
  C      4.022054    0.831745   -0.332768
  C      2.561101    0.794311   -0.498731
  C      1.890572    1.869433   -1.075765
  C      0.519195    1.817104   -1.227011
  F     -0.102281    2.876225   -1.752703
  C     -0.237937    0.721513   -0.810266
  C     -1.716208    0.689608   -1.018257
  O     -2.271875    1.093798   -1.999625
  O     -2.307457    0.125406    0.049543
  C     -3.664890   -0.083675    0.144792
  C     -4.622607    0.687956   -0.496587
  C     -5.956881    0.397693   -0.277689
  F     -6.867759    1.147662   -0.924527
  C     -6.382138   -0.636242    0.553761
  C     -7.806509   -0.935429    0.766330
  C     -8.238692   -2.259505    0.787576
  C     -9.572781   -2.550012    0.994114
  F     -9.972322   -3.829630    1.006293
  C    -10.507725   -1.539262    1.190879
  F    -11.798167   -1.828195    1.396176
  C    -10.064559   -0.221067    1.169345
  F    -10.943941    0.769914    1.365082
  C     -8.733794    0.084970    0.958670
  C     -5.390171   -1.391419    1.180746
  C     -4.052665   -1.121870    0.988420
  C      0.464026   -0.337103   -0.234492
  F     -0.199859   -1.434843    0.153729
  C      1.834993   -0.317350   -0.078455
  C      4.649112    0.438468    0.850044
  F      3.890638    0.030115    1.884933
  C      6.017591    0.476932    1.023871
  H     10.712407   -0.307521    0.885674
  H     10.816565   -1.435063   -0.466438
  H     10.882095    0.302550   -0.760532
  H      8.634998   -0.627179   -1.336667
  H      8.465275   -1.237318    0.308788
  H      8.767760    1.699047   -0.463802
  H      8.595525    1.086292    1.187879
  H      6.850878    1.642519   -2.033789
  H      2.418574    2.750048   -1.404056
  H     -4.358841    1.492190   -1.163341
  H     -7.550245   -3.072459    0.622154
  H     -8.438078    1.121357    0.955716
  H     -5.682020   -2.188966    1.845763
  H     -3.288411   -1.702951    1.478607
  H      2.322706   -1.172135    0.361582
  H      6.432078    0.168691    1.970772

----------------------------
CARTESIAN COORDINATES (A.U.)
----------------------------
  NO LB      ZA    FRAG     MASS         X           Y           Z
   0 C     4.0000*   0    12.011   19.698162   -0.892179   -0.283414
   1 C     4.0000*   0    12.011   16.834546   -0.838060   -0.558902
   2 C     4.0000*   0    12.011   15.737807    1.715619    0.274563
   3 C     4.0000*   0    12.011   12.924042    1.725231   -0.015495
   4 C     4.0000*   0    12.011   11.811505    2.463063   -2.276071
   5 C     4.0000*   0    12.011    9.218197    2.391272   -2.543392
   6 F     7.0000*   0    18.998    8.225517    3.098445   -4.774933
   7 C     4.0000*   0    12.011    7.600581    1.571770   -0.628840
   8 C     4.0000*   0    12.011    4.839779    1.501031   -0.942464
   9 C     4.0000*   0    12.011    3.572664    3.532716   -2.032901
  10 C     4.0000*   0    12.011    0.981136    3.433830   -2.318714
  11 F     7.0000*   0    18.998   -0.193282    5.435278   -3.312129
  12 C     4.0000*   0    12.011   -0.449637    1.363462   -1.531181
  13 C     4.0000*   0    12.011   -3.243163    1.303170   -1.924227
  14 O     6.0000*   0    15.999   -4.293221    2.066979   -3.778744
  15 O     6.0000*   0    15.999   -4.360461    0.236983    0.093623
  16 C     4.0000*   0    12.011   -6.925638   -0.158123    0.273617
  17 C     4.0000*   0    12.011   -8.735461    1.300049   -0.938413
  18 C     4.0000*   0    12.011  -11.256873    0.751530   -0.524756
  19 F     7.0000*   0    18.998  -12.978184    2.168767   -1.747102
  20 C     4.0000*   0    12.011  -12.060494   -1.202324    1.046457
  21 C     4.0000*   0    12.011  -14.752165   -1.767705    1.448153
  22 C     4.0000*   0    12.011  -15.568871   -4.269845    1.488303
  23 C     4.0000*   0    12.011  -18.089935   -4.818825    1.878603
  24 F     7.0000*   0    18.998  -18.844957   -7.236952    1.901619
  25 C     4.0000*   0    12.011  -19.856722   -2.908783    2.250435
  26 F     7.0000*   0    18.998  -22.295304   -3.454787    2.638390
  27 C     4.0000*   0    12.011  -19.019261   -0.417756    2.209741
  28 F     7.0000*   0    18.998  -20.681052    1.454927    2.579630
  29 C     4.0000*   0    12.011  -16.504479    0.160571    1.811623
  30 C     4.0000*   0    12.011  -10.185947   -2.629400    2.231287
  31 C     4.0000*   0    12.011   -7.658427   -2.120028    1.867844
  32 C     4.0000*   0    12.011    0.876882   -0.637033   -0.443126
  33 F     7.0000*   0    18.998   -0.377680   -2.711460    0.290505
  34 C     4.0000*   0    12.011    3.467635   -0.599704   -0.148258
  35 C     4.0000*   0    12.011    8.785549    0.828584    1.606350
  36 F     7.0000*   0    18.998    7.352241    0.056909    3.562007
  37 C     4.0000*   0    12.011   11.371599    0.901271    1.934836
  38 H     1.0000    0     1.008   20.243516   -0.581131    1.673681
  39 H     1.0000    0     1.008   20.440346   -2.711876   -0.881440
  40 H     1.0000    0     1.008   20.564180    0.571736   -1.437197
  41 H     1.0000    0     1.008   16.317782   -1.185197   -2.525934
  42 H     1.0000    0     1.008   15.997052   -2.338193    0.583524
  43 H     1.0000    0     1.008   16.568664    3.210734   -0.876459
  44 H     1.0000    0     1.008   16.243189    2.052794    2.244766
  45 H     1.0000    0     1.008   12.946283    3.103912   -3.843305
  46 H     1.0000    0     1.008    4.570443    5.196837   -2.653281
  47 H     1.0000    0     1.008   -8.237017    2.819831   -2.198396
  48 H     1.0000    0     1.008  -14.267895   -5.806105    1.175700
  49 H     1.0000    0     1.008  -15.945656    2.119058    1.806041
  50 H     1.0000    0     1.008  -10.737462   -4.136547    3.487986
  51 H     1.0000    0     1.008   -6.214197   -3.218110    2.794162
  52 H     1.0000    0     1.008    4.389279   -2.215013    0.683291
  53 H     1.0000    0     1.008   12.154866    0.318779    3.724219
* core charge reduced due to ECP

--------------------------------
INTERNAL COORDINATES (ANGSTROEM)
--------------------------------
 C      0   0   0     0.000000000000     0.00000000     0.00000000
 C      1   0   0     1.522625899475     0.00000000     0.00000000
 C      2   1   0     1.535414329804   111.42212249     0.00000000
 C      3   2   1     1.496879279868   110.45855024   179.93510735
 C      4   3   2     1.389263211044   120.71609249   271.30495468
 C      5   4   3     1.380113946407   120.12573299   178.06232935
 F      6   5   4     1.345534808827   118.06678679   180.67196931
 C      6   5   4     1.395441020454   122.96337611   359.28873947
 C      8   6   5     1.470826056387   122.36417860   180.11686843
 C      9   8   6     1.392287154556   120.36333127   315.07696068
 C     10   9   8     1.380684933384   119.63610739   179.85595692
 F     11  10   9     1.335784713262   118.37073133   178.33667735
 C     11  10   9     1.395437130998   122.40910349     0.55826793
 C     13  11  10     1.493171646161   120.81972044   181.34492460
 O     14  13  11     1.198006342747   124.47829554    39.29004701
 O     14  13  11     1.344654368780   109.49143433   218.42763924
 C     16  14  13     1.376739411043   123.51796727   181.91405049
 C     17  16  14     1.387084581269   124.35352977   332.15855614
 C     18  17  16     1.382915567274   118.43844860   182.23558453
 F     19  18  17     1.345567583404   117.39091974   180.88216286
 C     19  18  17     1.393260462059   123.00484244   359.79468942
 C     21  19  18     1.470894506726   122.19207303   180.44626996
 C     22  21  19     1.392985925410   119.73502631   137.86645216
 C     23  22  21     1.380886261099   120.13197476   179.63036524
 F     24  23  22     1.340597848256   119.34706258   179.73886603
 C     24  23  22     1.390845796216   121.17853334   359.67044527
 F     26  24  23     1.338234076188   120.86427366   180.28797327
 C     26  24  23     1.390861814933   118.18847725     0.24247059
 F     28  26  24     1.339279357103   119.32756173   180.43797252
 C     28  26  24     1.381658140708   121.27714144     0.00000000
 C     21  19  18     1.395492958010   116.92004696     0.14794784
 C     31  21  19     1.377885400261   121.42819332     0.22262858
 C     13  11  10     1.394610136527   116.49805367   359.55988317
 F     33  13  11     1.340332790612   119.46938857   181.80587269
 C     33  13  11     1.379959746250   122.40347311     0.00000000
 C      8   6   5     1.395317622608   115.30105567     0.23711631
 F     36   8   6     1.346488437935   118.93783873   178.79079772
 C     36   8   6     1.380010488879   122.99512910     0.35102484
 H      1   2   3     1.087634164976   110.63366020    60.03567728
 H      1   2   3     1.087039471219   110.38727353   180.00159941
 H      1   2   3     1.087616879110   110.62217698   299.95139574
 H      2   1   3     1.091794615396   109.71791291   120.93555840
 H      2   1   3     1.091816012631   109.71167899   239.05639398
 H      3   2   1     1.090996740719   108.99923882    59.03410996
 H      3   2   1     1.091029426746   109.01269045   300.85241393
 H      5   4   3     1.078616993113   120.96434956   357.87217168
 H     10   9   8     1.077980903486   121.40898430   359.47571900
 H     18  17  16     1.077462724477   122.16377618     2.96289856
 H     23  22  21     1.078061889786   121.08538663   358.21667072
 H     30  28  26     1.077754283704   118.53472914   180.30701710
 H     31  21  19     1.078658676533   118.99891225   178.90949368
 H     32  31  21     1.077970582190   121.28362156   179.62587630
 H     35  33  13     1.078031855330   118.96448674   180.84055532
 H     38  36   8     1.078625536185   118.92571585   179.25130839

---------------------------
INTERNAL COORDINATES (A.U.)
---------------------------
 C      0   0   0     0.000000000000     0.00000000     0.00000000
 C      1   0   0     2.877345954423     0.00000000     0.00000000
 C      2   1   0     2.901512585429   111.42212249     0.00000000
 C      3   2   1     2.828691894492   110.45855024   179.93510735
 C      4   3   2     2.625326996805   120.71609249   271.30495468
 C      5   4   3     2.608037392314   120.12573299   178.06232935
 F      6   5   4     2.542692292341   118.06678679   180.67196931
 C      6   5   4     2.637001364698   122.96337611   359.28873947
 C      8   6   5     2.779458437206   122.36417860   180.11686843
 C      9   8   6     2.631041421888   120.36333127   315.07696068
 C     10   9   8     2.609116401328   119.63610739   179.85595692
 F     11  10   9     2.524267281943   118.37073133   178.33667735
 C     11  10   9     2.636994014691   122.40910349     0.55826793
 C     13  11  10     2.821685482181   120.81972044   181.34492460
 O     14  13  11     2.263903894492   124.47829554    39.29004701
 O     14  13  11     2.541028501774   109.49143433   218.42763924
 C     16  14  13     2.601660444646   123.51796727   181.91405049
 C     17  16  14     2.621209983184   124.35352977   332.15855614
 C     18  17  16     2.613331688484   118.43844860   182.23558453
 F     19  18  17     2.542754227317   117.39091974   180.88216286
 C     19  18  17     2.632880706513   123.00484244   359.79468942
 C     21  19  18     2.779587789601   122.19207303   180.44626996
 C     22  21  19     2.632361907433   119.73502631   137.86645216
 C     23  22  21     2.609496855572   120.13197476   179.63036524
 F     24  23  22     2.533362788929   119.34706258   179.73886603
 C     24  23  22     2.628317649363   121.17853334   359.67044527
 F     26  24  23     2.528895907077   120.86427366   180.28797327
 C     26  24  23     2.628347920353   118.18847725     0.24247059
 F     28  26  24     2.530871201739   119.32756173   180.43797252
 C     28  26  24     2.610955496641   121.27714144     0.00000000
 C     21  19  18     2.637099512454   116.92004696     0.14794784
 C     31  21  19     2.603826050422   121.42819332     0.22262858
 C     13  11  10     2.635431221627   116.49805367   359.55988317
 F     33  13  11     2.532861902572   119.46938857   181.80587269
 C     33  13  11     2.607745996247   122.40347311     0.00000000
 C      8   6   5     2.636768176564   115.30105567     0.23711631
 F     36   8   6     2.544494390188   118.93783873   178.79079772
 C     36   8   6     2.607841885921   122.99512910     0.35102484
 H      1   2   3     2.055330705701   110.63366020    60.03567728
 H      1   2   3     2.054206897367   110.38727353   180.00159941
 H      1   2   3     2.055298040149   110.62217698   299.95139574
 H      2   1   3     2.063192817588   109.71791291   120.93555840
 H      2   1   3     2.063233252502   109.71167899   239.05639398
 H      3   2   1     2.061685052959   108.99923882    59.03410996
 H      3   2   1     2.061746820599   109.01269045   300.85241393
 H      5   4   3     2.038290720377   120.96434956   357.87217168
 H     10   9   8     2.037088685185   121.40898430   359.47571900
 H     18  17  16     2.036109468771   122.16377618     2.96289856
 H     23  22  21     2.037241727113   121.08538663   358.21667072
 H     30  28  26     2.036660435861   118.53472914   180.30701710
 H     31  21  19     2.038369490626   118.99891225   178.90949368
 H     32  31  21     2.037069180762   121.28362156   179.62587630
 H     35  33  13     2.037184970217   118.96448674   180.84055532
 H     38  36   8     2.038306864444   118.92571585   179.25130839

---------------------
BASIS SET INFORMATION
---------------------
There are 4 groups of distinct atoms

 Group   1 Type C   : 6s6p2d contracted to 2s2p1d pattern {42/42/2}
 Group   2 Type F   : 6s6p2d contracted to 2s2p1d pattern {42/42/2}
 Group   3 Type O   : 6s6p2d contracted to 2s2p1d pattern {42/42/2}
 Group   4 Type H   : 8s2p contracted to 2s1p pattern {53/2}

Atom   0C    basis set group =>   1
Atom   1C    basis set group =>   1
Atom   2C    basis set group =>   1
Atom   3C    basis set group =>   1
Atom   4C    basis set group =>   1
Atom   5C    basis set group =>   1
Atom   6F    basis set group =>   2
Atom   7C    basis set group =>   1
Atom   8C    basis set group =>   1
Atom   9C    basis set group =>   1
Atom  10C    basis set group =>   1
Atom  11F    basis set group =>   2
Atom  12C    basis set group =>   1
Atom  13C    basis set group =>   1
Atom  14O    basis set group =>   3
Atom  15O    basis set group =>   3
Atom  16C    basis set group =>   1
Atom  17C    basis set group =>   1
Atom  18C    basis set group =>   1
Atom  19F    basis set group =>   2
Atom  20C    basis set group =>   1
Atom  21C    basis set group =>   1
Atom  22C    basis set group =>   1
Atom  23C    basis set group =>   1
Atom  24F    basis set group =>   2
Atom  25C    basis set group =>   1
Atom  26F    basis set group =>   2
Atom  27C    basis set group =>   1
Atom  28F    basis set group =>   2
Atom  29C    basis set group =>   1
Atom  30C    basis set group =>   1
Atom  31C    basis set group =>   1
Atom  32C    basis set group =>   1
Atom  33F    basis set group =>   2
Atom  34C    basis set group =>   1
Atom  35C    basis set group =>   1
Atom  36F    basis set group =>   2
Atom  37C    basis set group =>   1
Atom  38H    basis set group =>   4
Atom  39H    basis set group =>   4
Atom  40H    basis set group =>   4
Atom  41H    basis set group =>   4
Atom  42H    basis set group =>   4
Atom  43H    basis set group =>   4
Atom  44H    basis set group =>   4
Atom  45H    basis set group =>   4
Atom  46H    basis set group =>   4
Atom  47H    basis set group =>   4
Atom  48H    basis set group =>   4
Atom  49H    basis set group =>   4
Atom  50H    basis set group =>   4
Atom  51H    basis set group =>   4
Atom  52H    basis set group =>   4
Atom  53H    basis set group =>   4
---------------------------------
AUXILIARY/J BASIS SET INFORMATION
---------------------------------
There are 4 groups of distinct atoms

 Group   1 Type C   : 12s5p4d2f1g contracted to 6s4p3d1f1g pattern {711111/2111/211/2/1}
 Group   2 Type F   : 12s5p4d2f1g contracted to 6s4p3d1f1g pattern {711111/2111/211/2/1}
 Group   3 Type O   : 12s5p4d2f1g contracted to 6s4p3d1f1g pattern {711111/2111/211/2/1}
 Group   4 Type H   : 5s2p1d contracted to 3s1p1d pattern {311/2/1}

Atom   0C    basis set group =>   1
Atom   1C    basis set group =>   1
Atom   2C    basis set group =>   1
Atom   3C    basis set group =>   1
Atom   4C    basis set group =>   1
Atom   5C    basis set group =>   1
Atom   6F    basis set group =>   2
Atom   7C    basis set group =>   1
Atom   8C    basis set group =>   1
Atom   9C    basis set group =>   1
Atom  10C    basis set group =>   1
Atom  11F    basis set group =>   2
Atom  12C    basis set group =>   1
Atom  13C    basis set group =>   1
Atom  14O    basis set group =>   3
Atom  15O    basis set group =>   3
Atom  16C    basis set group =>   1
Atom  17C    basis set group =>   1
Atom  18C    basis set group =>   1
Atom  19F    basis set group =>   2
Atom  20C    basis set group =>   1
Atom  21C    basis set group =>   1
Atom  22C    basis set group =>   1
Atom  23C    basis set group =>   1
Atom  24F    basis set group =>   2
Atom  25C    basis set group =>   1
Atom  26F    basis set group =>   2
Atom  27C    basis set group =>   1
Atom  28F    basis set group =>   2
Atom  29C    basis set group =>   1
Atom  30C    basis set group =>   1
Atom  31C    basis set group =>   1
Atom  32C    basis set group =>   1
Atom  33F    basis set group =>   2
Atom  34C    basis set group =>   1
Atom  35C    basis set group =>   1
Atom  36F    basis set group =>   2
Atom  37C    basis set group =>   1
Atom  38H    basis set group =>   4
Atom  39H    basis set group =>   4
Atom  40H    basis set group =>   4
Atom  41H    basis set group =>   4
Atom  42H    basis set group =>   4
Atom  43H    basis set group =>   4
Atom  44H    basis set group =>   4
Atom  45H    basis set group =>   4
Atom  46H    basis set group =>   4
Atom  47H    basis set group =>   4
Atom  48H    basis set group =>   4
Atom  49H    basis set group =>   4
Atom  50H    basis set group =>   4
Atom  51H    basis set group =>   4
Atom  52H    basis set group =>   4
Atom  53H    basis set group =>   4
-------------------------
ECP PARAMETER INFORMATION
-------------------------

 Group 1, Type C  ECP vDZP-ECP (replacing 2 core electrons, lmax=3)
 Group 2, Type F  ECP vDZP-ECP (replacing 2 core electrons, lmax=3)
 Group 3, Type O  ECP vDZP-ECP (replacing 2 core electrons, lmax=3)

Atom   0C    ECP group =>   1
Atom   1C    ECP group =>   1
Atom   2C    ECP group =>   1
Atom   3C    ECP group =>   1
Atom   4C    ECP group =>   1
Atom   5C    ECP group =>   1
Atom   6F    ECP group =>   2
Atom   7C    ECP group =>   1
Atom   8C    ECP group =>   1
Atom   9C    ECP group =>   1
Atom  10C    ECP group =>   1
Atom  11F    ECP group =>   2
Atom  12C    ECP group =>   1
Atom  13C    ECP group =>   1
Atom  14O    ECP group =>   3
Atom  15O    ECP group =>   3
Atom  16C    ECP group =>   1
Atom  17C    ECP group =>   1
Atom  18C    ECP group =>   1
Atom  19F    ECP group =>   2
Atom  20C    ECP group =>   1
Atom  21C    ECP group =>   1
Atom  22C    ECP group =>   1
Atom  23C    ECP group =>   1
Atom  24F    ECP group =>   2
Atom  25C    ECP group =>   1
Atom  26F    ECP group =>   2
Atom  27C    ECP group =>   1
Atom  28F    ECP group =>   2
Atom  29C    ECP group =>   1
Atom  30C    ECP group =>   1
Atom  31C    ECP group =>   1
Atom  32C    ECP group =>   1
Atom  33F    ECP group =>   2
Atom  34C    ECP group =>   1
Atom  35C    ECP group =>   1
Atom  36F    ECP group =>   2
Atom  37C    ECP group =>   1



           ************************************************************
           *        Program running with 4 parallel MPI-processes     *
           *              working on a common directory               *
           ************************************************************
------------------------------------------------------------------------------
                             ORCA STARTUP CALCULATIONS
                           -- RI-GTO INTEGRALS CHOSEN --
------------------------------------------------------------------------------
------------------------------------------------------------------------------
                   ___                                                        
                  /   \      - P O W E R E D   B Y -                         
                 /     \                                                     
                 |  |  |   _    _      __       _____    __    __             
                 |  |  |  | |  | |    /  \     |  _  \  |  |  /  |          
                  \  \/   | |  | |   /    \    | | | |  |  | /  /          
                 / \  \   | |__| |  /  /\  \   | |_| |  |  |/  /          
                |  |  |   |  __  | /  /__\  \  |    /   |      \           
                |  |  |   | |  | | |   __   |  |    \   |  |\   \          
                \     /   | |  | | |  |  |  |  | |\  \  |  | \   \       
                 \___/    |_|  |_| |__|  |__|  |_| \__\ |__|  \__/        
                                                                              
                      - O R C A' S   B I G   F R I E N D -                    
                                      &                                       
                       - I N T E G R A L  F E E D E R -                       
                                                                              
 v1 FN, 2020, v2 2021, v3 2022-2024                                           
------------------------------------------------------------------------------


----------------------
SHARK INTEGRAL PACKAGE
----------------------

Number of atoms                             ...     54
Number of basis functions                   ...    574
Number of shells                            ...    238
Maximum angular momentum                    ...      2
Integral batch strategy                     ... SHARK/LIBINT Hybrid
RI-J (if used) integral strategy            ... SPLIT-RIJ (Revised 2003 algorithm where possible)
Printlevel                                  ...      1
Contraction scheme used                     ... SEGMENTED contraction
Prescreening option                         ... SCHWARTZ
   Thresh                                   ... 1.000e-10
   Tcut                                     ... 1.000e-11
   Tpresel                                  ... 1.000e-11 
Coulomb Range Separation                    ... NOT USED
Exchange Range Separation                   ... Long Range
   Mu parameter                             ... 3.000e-01
   Scaling (regular/separated)              ... 1.670e-01 8.330e-01
Robust (split-)RI terms used:
  metric    (central integrals)             ... YES
  density   (r.h.s.  integrals)             ... YES
  potential (l.h.s.  integrals)             ... YES
Multipole approximations                    ... NOT USED
Finite Nucleus Model                        ... NOT USED
CABS basis                                  ... NOT available
Auxiliary Coulomb fitting basis             ... AVAILABLE
   # of basis functions in Aux-J            ...   2038
   # of shells in Aux-J                     ...    650
   Maximum angular momentum in Aux-J        ...      4
Auxiliary J/K fitting basis                 ... NOT available
Auxiliary Correlation fitting basis         ... NOT available
Auxiliary 'external' fitting basis          ... NOT available

done (  0.0 sec) Dimension = 238
   => SHARK Basis and OBASIS are compatible. Storing Pre-screening
Shell pair information
Shell pair cut-off parameter TPreSel        ...   1.0e-11
Total number of shell pairs                 ...     28441
Shell pairs after pre-screening             ...     18309
Total number of primitive shell pairs       ...    240572
Primitive shell pairs kept                  ...    101280
          la=0 lb=0:   3871 shell pairs
          la=1 lb=0:   6526 shell pairs
          la=1 lb=1:   2844 shell pairs
          la=2 lb=0:   2527 shell pairs
          la=2 lb=1:   2124 shell pairs
          la=2 lb=2:    417 shell pairs

Checking whether 4 symmetric matrices of dimension 574 fit in memory
:Max Core in MB      =   4000.00
 MB in use           =     36.70
 MB left             =   3963.30
 MB needed           =      5.04
 Data fit in memory  = YES
done (  0.3 sec)
Calculating Nuclear repulsion               ... done (  0.0 sec) ENN=   1924.397412179675 Eh

Diagonalization of the overlap matrix:
Smallest eigenvalue                        ... 2.262e-04
Time for diagonalization                   ...    0.056 sec
Threshold for overlap eigenvalues          ... 1.000e-07
Number of eigenvalues below threshold      ... 0
Time for construction of square roots      ...    0.032 sec
Total time needed                          ...    0.097 sec

-------------------
DFT GRID GENERATION
-------------------

General Integration Accuracy     IntAcc      ... 4.388
Radial Grid Type                 RadialGrid  ... OptM3 with GC (2021)
Angular Grid (max. ang.)         AngularGrid ... 4 (Lebedev-302)
Angular grid pruning method      GridPruning ... 4 (adaptive)
Weight generation scheme         WeightScheme... mBecke (2022)
Basis function cutoff            BFCut       ... 1.0000e-10
Integration weight cutoff        WCut        ... 1.0000e-14
Partially contracted basis set               ... off
Rotationally invariant grid construction     ... off
Angular grids for H and He will be reduced by one unit

Total number of grid points                  ...   278835
Total number of batches                      ...     4384
Average number of points per batch           ...       63
Average number of grid points per atom       ...     5164

--------------------
COSX GRID GENERATION
--------------------

GRIDX 1
-------
General Integration Accuracy     IntAcc      ... 3.816
Radial Grid Type                 RadialGrid  ... OptM3 with GC (2021)
Angular Grid (max. ang.)         AngularGrid ... 1 (Lebedev-50)
Angular grid pruning method      GridPruning ... 4 (adaptive)
Weight generation scheme         WeightScheme... mBecke (2022)
Basis function cutoff            BFCut       ... 1.0000e-10
Integration weight cutoff        WCut        ... 1.0000e-14
Partially contracted basis set               ... on
Rotationally invariant grid construction     ... off
Angular grids for H and He will be reduced by one unit

Total number of grid points                  ...    35291
Total number of batches                      ...      304
Average number of points per batch           ...      116
Average number of grid points per atom       ...      654
UseSFitting                                  ... on

GRIDX 2
-------
General Integration Accuracy     IntAcc      ... 4.020
Radial Grid Type                 RadialGrid  ... OptM3 with GC (2021)
Angular Grid (max. ang.)         AngularGrid ... 2 (Lebedev-110)
Angular grid pruning method      GridPruning ... 4 (adaptive)
Weight generation scheme         WeightScheme... mBecke (2022)
Basis function cutoff            BFCut       ... 1.0000e-10
Integration weight cutoff        WCut        ... 1.0000e-14
Partially contracted basis set               ... on
Rotationally invariant grid construction     ... off
Angular grids for H and He will be reduced by one unit

Total number of grid points                  ...    79064
Total number of batches                      ...      643
Average number of points per batch           ...      122
Average number of grid points per atom       ...     1464
UseSFitting                                  ... on

GRIDX 3
-------
General Integration Accuracy     IntAcc      ... 4.338
Radial Grid Type                 RadialGrid  ... OptM3 with GC (2021)
Angular Grid (max. ang.)         AngularGrid ... 3 (Lebedev-194)
Angular grid pruning method      GridPruning ... 4 (adaptive)
Weight generation scheme         WeightScheme... mBecke (2022)
Basis function cutoff            BFCut       ... 1.0000e-10
Integration weight cutoff        WCut        ... 1.0000e-14
Partially contracted basis set               ... on
Rotationally invariant grid construction     ... off
Angular grids for H and He will be reduced by one unit

Total number of grid points                  ...   173724
Total number of batches                      ...     1383
Average number of points per batch           ...      125
Average number of grid points per atom       ...     3217
UseSFitting                                  ... on
Grids setup in   6.9 sec
Initializing property integral containers    ... done (  0.0 sec)

SHARK setup successfully completed in   9.7 seconds

Maximum memory used throughout the entire STARTUP-calculation: 100.9 MB


           ************************************************************
           *        Program running with 4 parallel MPI-processes     *
           *              working on a common directory               *
           ************************************************************
-------------------------------------------------------------------------------
                                 ORCA GUESS
                   Start orbitals & Density for SCF / CASSCF
-------------------------------------------------------------------------------

------------
SCF SETTINGS
------------
Hamiltonian:
 Density Functional     Method          .... DFT(GTOs)
 Exchange Functional    Exchange        .... WB97X-V
 Correlation Functional Correlation     .... WB97X-V
 Gradients option       PostSCFGGA      .... off
 Hybrid DFT is turned on
   Fraction HF Exchange ScalHFX         ....  0.167000
   Scaling of DF-GGA-X  ScalDFX         ....  0.000000
   Scaling of DF-GGA-C  ScalDFC         ....  1.000000
   Scaling of DF-LDA-C  ScalLDAC        ....  1.000000
   Perturbative correction              ....  0.000000
 Long-range corrected/Screened/Range-Separated Hybrid DFT is turned on
   Amount of maximum screened exact exchange              ....  0.833000
   Range separation parameter mu (erf(mu*r12)/r12)        ....  0.300000
   NL short-range parameter             ....  6.000000
   NL long-range parameter              ....  0.010000
 RI-approximation to the Coulomb term is turned on
   Number of AuxJ basis functions       .... 2038
   RIJ-COSX (HFX calculated with COS-X)).... on


General Settings:
 Integral files         IntName         .... conf_016
 Hartree-Fock type      HFTyp           .... RHF
 Total Charge           Charge          ....    0
 Multiplicity           Mult            ....    1
 Number of Electrons    NEL             ....  196
 Basis Dimension        Dim             ....  574
 Nuclear Repulsion      ENuc            ....   1924.3974121797 Eh

Convergence Acceleration:
 AO-DIIS                CNVDIIS         .... on
   Start iteration      DIISMaxIt       ....    12
   Startup error        DIISStart       ....  0.200000
   # of expansion vecs  DIISMaxEq       ....     5
   Bias factor          DIISBfac        ....   1.050
   Max. coefficient     DIISMaxC        ....  10.000
 MO-DIIS                CNVKDIIS        .... off
 Trust-Rad. Augm. Hess. CNVTRAH         .... auto
   Auto Start mean grad. ratio tolernc. ....  1.125000
   Auto Start start iteration           ....    50
   Auto Start num. interpolation iter.  ....    10
   Max. Number of Micro iterations      ....    24
   Max. Number of Macro iterations      .... Maxiter - #DIIS iter
   Number of Davidson start vectors     ....     2
   Converg. threshold    (grad. norm)   ....   5.000e-05
   Grad. Scal. Fac. for Micro threshold ....   0.100
   Minimum threshold for Micro iter.    ....   1.000e-02
   NR start threshold (gradient norm)   ....   1.000e-04
   Initial trust radius                 ....   0.400
   Minimum AH scaling param. (alpha)    ....   1.000
   Maximum AH scaling param. (alpha)    .... 1000.000
   Quad. conv. algorithm                .... NR
   White noise on init. David. guess    .... on
   Maximum white noise                  ....   0.010
   Pseudo random numbers                .... off
   Inactive MOs                         .... canonical
   Orbital update algorithm             .... Taylor
   Preconditioner                       .... Diag
   Full preconditioner red. dimension   ....   250
 SOSCF                 CNVSOSCF           .... on
   Start iteration     SOSCFMaxIt         ....   150
   Startup grad/error  SOSCFStart         ....  0.003300
   Hessian update      SOSCFHessUp        .... L-BFGS
   Autom. constraints  SOSCFAutoConstrain .... off
 Level Shifting         CNVShift        .... on
   Level shift para.    LevelShift      ....    0.2500
   Turn off err/grad.   ShiftErr        ....    0.0010
 Zerner damping         CNVZerner       .... off
 Static damping         CNVDamp         .... on
   Fraction old density DampFac         ....    0.7000
   Max. Damping (<1)    DampMax         ....    0.9800
   Min. Damping (>=0)   DampMin         ....    0.0000
   Turn off err/grad.   DampErr         ....    0.1000

SCF Procedure:
 Maximum # iterations   MaxIter         ....   125
 SCF integral mode      SCFMode         .... Direct
   Integral package                     .... SHARK and LIBINT hybrid scheme
 Reset frequency        DirectResetFreq ....    20
 Integral Threshold     Thresh          ....  1.000e-10 Eh
 Primitive CutOff       TCut            ....  1.000e-11 Eh

Convergence Tolerance:
 Convergence Check Mode ConvCheckMode   .... Total+1el-Energy
 Convergence forced     ConvForced      .... 0
 Energy Change          TolE            ....  1.000e-06 Eh
 1-El. energy change                    ....  1.000e-03 Eh
 Orbital Gradient       TolG            ....  5.000e-05
 Orbital Rotation angle TolX            ....  5.000e-05
 DIIS Error             TolErr          ....  1.000e-06

------------------------------
INITIAL GUESS: MODEL POTENTIAL
------------------------------
Loading Hartree-Fock densities                     ... done
Atomic calculation to generate a density for atom 0 (C  with ECP)
  Multiplicity assumed   :    1
  Atomic configuration   : 1s2 2s2 2p2 
  Number of open shells  : 1
  Command: /opt/apps/pkg/applications/orca/orca_6_1_0_linux_x86-64_shared_openmpi418/orca conf_016_atom6.inp "" > conf_016_atom6.out
Returned from the atomic calculation with res=0
Atomic calculation to generate a density for atom 6 (F  with ECP)
  Multiplicity assumed   :    2
  Atomic configuration   : 1s2 2s2 2p5 
  Number of open shells  : 1
  Command: /opt/apps/pkg/applications/orca/orca_6_1_0_linux_x86-64_shared_openmpi418/orca conf_016_atom9.inp "" > conf_016_atom9.out
Returned from the atomic calculation with res=0
Atomic calculation to generate a density for atom 14 (O  with ECP)
  Multiplicity assumed   :    3
  Atomic configuration   : 1s2 2s2 2p4 
  Number of open shells  : 1
  Command: /opt/apps/pkg/applications/orca/orca_6_1_0_linux_x86-64_shared_openmpi418/orca conf_016_atom8.inp "" > conf_016_atom8.out
Returned from the atomic calculation with res=0
Calculating cut-offs                               ... done
Initializing the effective Hamiltonian             ... done
Setting up the integral package (SHARK)            ... done
done (   1.9 sec)
done (   1.0 sec)
Mapping shells                                     ... done
Starting the XC term evaluation                    ... done (   0.5 sec)
  promolecular density results
     # of electrons  =    271.991727591
     EX              =   -168.150699554
     EC              =    -11.744513630
     EX+EC           =   -179.895213184
Transforming the Hamiltonian                       ... done (   0.1 sec)
done (   0.1 sec)
Back transforming the eigenvectors                 ... done (   0.3 sec)
done
                      ------------------
                      INITIAL GUESS DONE (   8.9 sec)
                      ------------------
             **** ENERGY FILE WAS UPDATED (conf_016.en.tmp) ****
Finished Guess after  11.1 sec
Maximum memory used throughout the entire GUESS-calculation: 55.4 MB


           ************************************************************
           *        Program running with 4 parallel MPI-processes     *
           *              working on a common directory               *
           ************************************************************

-------------------------------------------------------------------------------------------
                                      ORCA LEAN-SCF
                              memory conserving SCF solver
-------------------------------------------------------------------------------------------

----------------------------------------D-I-I-S--------------------------------------------
Iteration    Energy (Eh)           Delta-E    RMSDP     MaxDP     DIISErr   Damp  Time(sec)
-------------------------------------------------------------------------------------------
               ***  Starting incremental Fock matrix formation  ***
    1    -394.3783407505827654     0.00e+00  5.83e-03  9.42e-02  2.11e-01  0.700  74.8
    2    -394.9471405223591773    -5.69e-01  4.22e-03  6.69e-02  1.13e-01  0.700  30.3
                               ***Turning on AO-DIIS***
    3    -395.2112941435495941    -2.64e-01  2.44e-03  3.46e-02  5.94e-02  0.700  29.8
    4    -395.3680677731792912    -1.57e-01  5.36e-03  7.25e-02  3.44e-02  0.000  28.4
    5    -395.7094769484867811    -3.41e-01  4.48e-04  6.88e-03  7.28e-03  0.000  32.2
    6    -395.7112896275596086    -1.81e-03  2.33e-04  4.63e-03  3.37e-03  0.000  25.5
                              *** Initializing SOSCF ***
---------------------------------------S-O-S-C-F--------------------------------------
Iteration    Energy (Eh)           Delta-E    RMSDP     MaxDP     MaxGrad    Time(sec)
--------------------------------------------------------------------------------------
    7    -395.7118025024694816    -5.13e-04  1.22e-04  3.04e-03  2.16e-03    22.8
               *** Restarting incremental Fock matrix formation ***
    8    -395.7120118589266440    -2.09e-04  8.07e-05  1.58e-03  1.27e-03    70.7
    9    -395.7120643167052094    -5.25e-05  9.60e-05  2.47e-03  6.04e-04    43.4
   10    -395.7120780462089442    -1.37e-05  3.07e-05  1.39e-03  2.97e-04    40.9
   11    -395.7120841431012650    -6.10e-06  1.10e-05  2.93e-04  5.38e-05    35.3
   12    -395.7120843597301700    -2.17e-07  5.00e-06  9.28e-05  4.66e-05    28.2
                 **** Energy Check signals convergence ****

               *****************************************************
               *                     SUCCESS                       *
               *           SCF CONVERGED AFTER  12 CYCLES          *
               *****************************************************

 done (  131.961 sec)
Old exchange energy                            :    -40.322338230 Eh
New exchange energy                            :    -40.322279097 Eh
Exchange energy change after final integration :      0.000059133 Eh
Total energy after final integration           :   -395.712025468 Eh
             **** ENERGY FILE WAS UPDATED (conf_016.en.tmp) ****

----------------
TOTAL SCF ENERGY
----------------

Total Energy       :       -395.71202546802277 Eh          -10767.87164 eV

Components:
Nuclear Repulsion  :       1924.39741217967526 Eh           52365.51580 eV
Electronic Energy  :      -2320.10949678056568 Eh          -63133.38905 eV
One Electron Energy:      -4464.86251106030522 Eh         -121495.08562 eV
Two Electron Energy:       2144.75301427973955 Eh           58361.69657 eV

Virial components:
Potential Energy   :       -709.37674840323530 Eh          -19303.12268 eV
Kinetic Energy     :        313.66472293521252 Eh            8535.25103 eV
Virial Ratio       :          2.26157644304093

DFT components:
N(Alpha)           :       97.999978480446 electrons
N(Beta)            :       97.999978480446 electrons
N(Total)           :      195.999956960892 electrons
E(X)               :      -51.261253746141 Eh       
E(C)               :       -7.927614796042 Eh       
E(XC)              :      -59.188868542183 Eh       

---------------
SCF CONVERGENCE
---------------

  Last Energy change         ...    2.1663e-07  Tolerance :   1.0000e-06
  Last MAX-Density change    ...    9.2769e-05  Tolerance :   1.0000e-05
  Last RMS-Density change    ...    5.0021e-06  Tolerance :   1.0000e-06
  Last DIIS Error            ...    2.1647e-03  Tolerance :   1.0000e-06
  Last Orbital Gradient      ...    4.6559e-05  Tolerance :   5.0000e-05
  Last Orbital Rotation      ...    1.7649e-04  Tolerance :   5.0000e-05


----------------
ORBITAL ENERGIES
----------------

  NO   OCC          E(Eh)            E(eV) 
   0   2.0000      -1.387348       -37.7517 
   1   2.0000      -1.382420       -37.6176 
   2   2.0000      -1.380425       -37.5633 
   3   2.0000      -1.379992       -37.5515 
   4   2.0000      -1.379647       -37.5421 
   5   2.0000      -1.376273       -37.4503 
   6   2.0000      -1.370809       -37.3016 
   7   2.0000      -1.366984       -37.1975 
   8   2.0000      -1.278706       -34.7954 
   9   2.0000      -1.184539       -32.2329 
  10   2.0000      -1.060320       -28.8528 
  11   2.0000      -1.052681       -28.6449 
  12   2.0000      -1.042050       -28.3556 
  13   2.0000      -1.030208       -28.0334 
  14   2.0000      -0.985616       -26.8200 
  15   2.0000      -0.962895       -26.2017 
  16   2.0000      -0.949420       -25.8350 
  17   2.0000      -0.922320       -25.0976 
  18   2.0000      -0.921216       -25.0676 
  19   2.0000      -0.918885       -25.0041 
  20   2.0000      -0.917471       -24.9657 
  21   2.0000      -0.915689       -24.9172 
  22   2.0000      -0.898991       -24.4628 
  23   2.0000      -0.857824       -23.3426 
  24   2.0000      -0.834337       -22.7035 
  25   2.0000      -0.801026       -21.7970 
  26   2.0000      -0.795591       -21.6491 
  27   2.0000      -0.793354       -21.5883 
  28   2.0000      -0.780954       -21.2508 
  29   2.0000      -0.777624       -21.1602 
  30   2.0000      -0.768225       -20.9045 
  31   2.0000      -0.759888       -20.6776 
  32   2.0000      -0.738467       -20.0947 
  33   2.0000      -0.737730       -20.0747 
  34   2.0000      -0.713813       -19.4238 
  35   2.0000      -0.709660       -19.3108 
  36   2.0000      -0.694233       -18.8910 
  37   2.0000      -0.690315       -18.7844 
  38   2.0000      -0.685181       -18.6447 
  39   2.0000      -0.684444       -18.6247 
  40   2.0000      -0.678350       -18.4588 
  41   2.0000      -0.671488       -18.2721 
  42   2.0000      -0.663762       -18.0619 
  43   2.0000      -0.644451       -17.5364 
  44   2.0000      -0.643575       -17.5126 
  45   2.0000      -0.640082       -17.4175 
  46   2.0000      -0.639444       -17.4001 
  47   2.0000      -0.638377       -17.3711 
  48   2.0000      -0.634190       -17.2572 
  49   2.0000      -0.631031       -17.1712 
  50   2.0000      -0.622505       -16.9392 
  51   2.0000      -0.618403       -16.8276 
  52   2.0000      -0.616079       -16.7643 
  53   2.0000      -0.615190       -16.7402 
  54   2.0000      -0.611373       -16.6363 
  55   2.0000      -0.608540       -16.5592 
  56   2.0000      -0.605975       -16.4894 
  57   2.0000      -0.604083       -16.4379 
  58   2.0000      -0.598827       -16.2949 
  59   2.0000      -0.595462       -16.2033 
  60   2.0000      -0.592384       -16.1196 
  61   2.0000      -0.588303       -16.0085 
  62   2.0000      -0.585598       -15.9349 
  63   2.0000      -0.579650       -15.7731 
  64   2.0000      -0.572138       -15.5687 
  65   2.0000      -0.567409       -15.4400 
  66   2.0000      -0.554611       -15.0917 
  67   2.0000      -0.553012       -15.0482 
  68   2.0000      -0.550447       -14.9784 
  69   2.0000      -0.541856       -14.7446 
  70   2.0000      -0.537175       -14.6173 
  71   2.0000      -0.535560       -14.5733 
  72   2.0000      -0.532934       -14.5019 
  73   2.0000      -0.525728       -14.3058 
  74   2.0000      -0.518863       -14.1190 
  75   2.0000      -0.517379       -14.0786 
  76   2.0000      -0.512598       -13.9485 
  77   2.0000      -0.504464       -13.7272 
  78   2.0000      -0.502445       -13.6722 
  79   2.0000      -0.501024       -13.6336 
  80   2.0000      -0.499484       -13.5917 
  81   2.0000      -0.493919       -13.4402 
  82   2.0000      -0.490845       -13.3566 
  83   2.0000      -0.488476       -13.2921 
  84   2.0000      -0.485918       -13.2225 
  85   2.0000      -0.468761       -12.7556 
  86   2.0000      -0.464632       -12.6433 
  87   2.0000      -0.460886       -12.5414 
  88   2.0000      -0.459298       -12.4981 
  89   2.0000      -0.422527       -11.4976 
  90   2.0000      -0.401418       -10.9231 
  91   2.0000      -0.388420       -10.5694 
  92   2.0000      -0.370919       -10.0932 
  93   2.0000      -0.369931       -10.0663 
  94   2.0000      -0.369480       -10.0541 
  95   2.0000      -0.367995       -10.0137 
  96   2.0000      -0.351820        -9.5735 
  97   2.0000      -0.335663        -9.1339 
  98   0.0000      -0.010852        -0.2953 
  99   0.0000       0.016884         0.4594 
 100   0.0000       0.046554         1.2668 
 101   0.0000       0.046826         1.2742 
 102   0.0000       0.048124         1.3095 
 103   0.0000       0.049067         1.3352 
 104   0.0000       0.049788         1.3548 
 105   0.0000       0.073022         1.9870 
 106   0.0000       0.078224         2.1286 
 107   0.0000       0.081124         2.2075 
 108   0.0000       0.086049         2.3415 
*Only the first 10 virtual orbitals were printed.

                    ********************************
                    * MULLIKEN POPULATION ANALYSIS *
                    ********************************

-----------------------
MULLIKEN ATOMIC CHARGES
-----------------------
   0 C :   -0.064702
   1 C :   -0.064615
   2 C :   -0.043389
   3 C :   -0.041766
   4 C :    0.036657
   5 C :    0.198873
   6 F :   -0.226286
   7 C :   -0.128683
   8 C :   -0.085696
   9 C :    0.065552
  10 C :    0.226202
  11 F :   -0.204549
  12 C :   -0.155090
  13 C :    0.285092
  14 O :   -0.278900
  15 O :   -0.221033
  16 C :    0.063072
  17 C :    0.049062
  18 C :    0.176782
  19 F :   -0.228699
  20 C :   -0.112451
  21 C :   -0.078768
  22 C :    0.025863
  23 C :    0.173658
  24 F :   -0.217461
  25 C :    0.193099
  26 F :   -0.209580
  27 C :    0.171247
  28 F :   -0.214887
  29 C :    0.061469
  30 C :    0.045105
  31 C :    0.045374
  32 C :    0.240880
  33 F :   -0.216376
  34 C :    0.069773
  35 C :    0.199127
  36 F :   -0.228129
  37 C :    0.036845
  38 H :    0.028864
  39 H :    0.036225
  40 H :    0.028949
  41 H :    0.042763
  42 H :    0.042259
  43 H :    0.044184
  44 H :    0.043881
  45 H :    0.032442
  46 H :    0.049648
  47 H :    0.064097
  48 H :    0.044101
  49 H :    0.048460
  50 H :    0.037533
  51 H :    0.032927
  52 H :    0.048714
  53 H :    0.032281
Sum of atomic charges:   -0.0000000

--------------------------------
MULLIKEN REDUCED ORBITAL CHARGES
--------------------------------
  0 C s       :     0.937704  s :     0.937704
      pz      :     1.043241  p :     3.052733
      px      :     0.953973
      py      :     1.055519
      dz2     :     0.015571  d :     0.074264
      dxz     :     0.015544
      dyz     :     0.009841
      dx2y2   :     0.014873
      dxy     :     0.018435

  1 C s       :     1.007569  s :     1.007569
      pz      :     1.049697  p :     2.955289
      px      :     0.947137
      py      :     0.958454
      dz2     :     0.020387  d :     0.101758
      dxz     :     0.017460
      dyz     :     0.017110
      dx2y2   :     0.022471
      dxy     :     0.024330

  2 C s       :     0.968573  s :     0.968573
      pz      :     1.055860  p :     2.974398
      px      :     0.929343
      py      :     0.989196
      dz2     :     0.020923  d :     0.100418
      dxz     :     0.014587
      dyz     :     0.017750
      dx2y2   :     0.024411
      dxy     :     0.022747

  3 C s       :     1.043454  s :     1.043454
      pz      :     0.962197  p :     2.869326
      px      :     0.977099
      py      :     0.930030
      dz2     :     0.030066  d :     0.128986
      dxz     :     0.035904
      dyz     :     0.020662
      dx2y2   :     0.018052
      dxy     :     0.024301

  4 C s       :     0.961197  s :     0.961197
      pz      :     0.970402  p :     2.915156
      px      :     0.929289
      py      :     1.015465
      dz2     :     0.019802  d :     0.086990
      dxz     :     0.025316
      dyz     :     0.011525
      dx2y2   :     0.012330
      dxy     :     0.018017

  5 C s       :     1.059662  s :     1.059662
      pz      :     0.711810  p :     2.556013
      px      :     0.936442
      py      :     0.907761
      dz2     :     0.046346  d :     0.185452
      dxz     :     0.053013
      dyz     :     0.031939
      dx2y2   :     0.021062
      dxy     :     0.033091

  6 F s       :     1.886020  s :     1.886020
      pz      :     1.558562  p :     5.316598
      px      :     1.878922
      py      :     1.879114
      dz2     :     0.008037  d :     0.023667
      dxz     :     0.006311
      dyz     :     0.006145
      dx2y2   :     0.001490
      dxy     :     0.001684

  7 C s       :     0.989738  s :     0.989738
      pz      :     0.992610  p :     3.027918
      px      :     0.970905
      py      :     1.064402
      dz2     :     0.021742  d :     0.111028
      dxz     :     0.034572
      dyz     :     0.016449
      dx2y2   :     0.016195
      dxy     :     0.022070

  8 C s       :     1.015364  s :     1.015364
      pz      :     0.952613  p :     2.939723
      px      :     0.976546
      py      :     1.010565
      dz2     :     0.016724  d :     0.130609
      dxz     :     0.021100
      dyz     :     0.019784
      dx2y2   :     0.036924
      dxy     :     0.036078

  9 C s       :     0.970622  s :     0.970622
      pz      :     0.983348  p :     2.876999
      px      :     0.909803
      py      :     0.983848
      dz2     :     0.009342  d :     0.086827
      dxz     :     0.018843
      dyz     :     0.010170
      dx2y2   :     0.025610
      dxy     :     0.022861

 10 C s       :     1.064767  s :     1.064767
      pz      :     0.850295  p :     2.519512
      px      :     0.895198
      py      :     0.774020
      dz2     :     0.021692  d :     0.189519
      dxz     :     0.035766
      dyz     :     0.029629
      dx2y2   :     0.051945
      dxy     :     0.050487

 11 F s       :     1.884104  s :     1.884104
      pz      :     1.832979  p :     5.296157
      px      :     1.842441
      py      :     1.620737
      dz2     :     0.003724  d :     0.024287
      dxz     :     0.002815
      dyz     :     0.005959
      dx2y2   :     0.005348
      dxy     :     0.006441

 12 C s       :     1.011342  s :     1.011342
      pz      :     1.093316  p :     3.044823
      px      :     0.916702
      py      :     1.034805
      dz2     :     0.014710  d :     0.098925
      dxz     :     0.017025
      dyz     :     0.015629
      dx2y2   :     0.025517
      dxy     :     0.026045

 13 C s       :     1.078848  s :     1.078848
      pz      :     0.717764  p :     2.356180
      px      :     0.899294
      py      :     0.739122
      dz2     :     0.081073  d :     0.279880
      dxz     :     0.073273
      dyz     :     0.052221
      dx2y2   :     0.042960
      dxy     :     0.030353

 14 O s       :     1.762220  s :     1.762220
      pz      :     1.378399  p :     4.477857
      px      :     1.682234
      py      :     1.417224
      dz2     :     0.012203  d :     0.038823
      dxz     :     0.008954
      dyz     :     0.009959
      dx2y2   :     0.003498
      dxy     :     0.004208

 15 O s       :     1.650902  s :     1.650902
      pz      :     1.522407  p :     4.527257
      px      :     1.321959
      py      :     1.682891
      dz2     :     0.010551  d :     0.042875
      dxz     :     0.009259
      dyz     :     0.007014
      dx2y2   :     0.009583
      dxy     :     0.006468

 16 C s       :     1.040379  s :     1.040379
      pz      :     1.012734  p :     2.725377
      px      :     0.720467
      py      :     0.992176
      dz2     :     0.027733  d :     0.171172
      dxz     :     0.039152
      dyz     :     0.013988
      dx2y2   :     0.043644
      dxy     :     0.046653

 17 C s       :     0.968717  s :     0.968717
      pz      :     0.982558  p :     2.898123
      px      :     0.915712
      py      :     0.999853
      dz2     :     0.011066  d :     0.084098
      dxz     :     0.021661
      dyz     :     0.010076
      dx2y2   :     0.019483
      dxy     :     0.021813

 18 C s       :     1.060334  s :     1.060334
      pz      :     0.882152  p :     2.578832
      px      :     0.829519
      py      :     0.867161
      dz2     :     0.032550  d :     0.184052
      dxz     :     0.041072
      dyz     :     0.021114
      dx2y2   :     0.044765
      dxy     :     0.044551

 19 F s       :     1.885969  s :     1.885969
      pz      :     1.809518  p :     5.319113
      px      :     1.726639
      py      :     1.782956
      dz2     :     0.003843  d :     0.023618
      dxz     :     0.005535
      dyz     :     0.003710
      dx2y2   :     0.004362
      dxy     :     0.006169

 20 C s       :     0.993075  s :     0.993075
      pz      :     1.022743  p :     3.001164
      px      :     0.983998
      py      :     0.994423
      dz2     :     0.021267  d :     0.118213
      dxz     :     0.027179
      dyz     :     0.013008
      dx2y2   :     0.030483
      dxy     :     0.026276

 21 C s       :     0.999406  s :     0.999406
      pz      :     0.967141  p :     2.951006
      px      :     0.983798
      py      :     1.000067
      dz2     :     0.007164  d :     0.128356
      dxz     :     0.021183
      dyz     :     0.025778
      dx2y2   :     0.037696
      dxy     :     0.036535

 22 C s       :     0.968697  s :     0.968697
      pz      :     1.007005  p :     2.916515
      px      :     0.944835
      py      :     0.964676
      dz2     :     0.005788  d :     0.088925
      dxz     :     0.017016
      dyz     :     0.014295
      dx2y2   :     0.024226
      dxy     :     0.027601

 23 C s       :     1.058175  s :     1.058175
      pz      :     0.961111  p :     2.585295
      px      :     0.953777
      py      :     0.670407
      dz2     :     0.009773  d :     0.182872
      dxz     :     0.026870
      dyz     :     0.041538
      dx2y2   :     0.046592
      dxy     :     0.058099

 24 F s       :     1.888335  s :     1.888335
      pz      :     1.911518  p :     5.305274
      px      :     1.907156
      py      :     1.486599
      dz2     :     0.002729  d :     0.023852
      dxz     :     0.000728
      dyz     :     0.006485
      dx2y2   :     0.007595
      dxy     :     0.006315

 25 C s       :     1.045682  s :     1.045682
      pz      :     1.009536  p :     2.586061
      px      :     0.665411
      py      :     0.911114
      dz2     :     0.010602  d :     0.175157
      dxz     :     0.041279
      dyz     :     0.025036
      dx2y2   :     0.043132
      dxy     :     0.055108

 26 F s       :     1.889004  s :     1.889004
      pz      :     1.900136  p :     5.296154
      px      :     1.470596
      py      :     1.925421
      dz2     :     0.002902  d :     0.024422
      dxz     :     0.007181
      dyz     :     0.000519
      dx2y2   :     0.007896
      dxy     :     0.005924

 27 C s       :     1.058197  s :     1.058197
      pz      :     0.960840  p :     2.587142
      px      :     0.841984
      py      :     0.784318
      dz2     :     0.010327  d :     0.183414
      dxz     :     0.032079
      dyz     :     0.036497
      dx2y2   :     0.056649
      dxy     :     0.047864

 28 F s       :     1.887940  s :     1.887940
      pz      :     1.899766  p :     5.303030
      px      :     1.733452
      py      :     1.669812
      dz2     :     0.002852  d :     0.023916
      dxz     :     0.003333
      dyz     :     0.004112
      dx2y2   :     0.005349
      dxy     :     0.008271

 29 C s       :     0.973951  s :     0.973951
      pz      :     0.985188  p :     2.875850
      px      :     0.897223
      py      :     0.993439
      dz2     :     0.006639  d :     0.088731
      dxz     :     0.020763
      dyz     :     0.009577
      dx2y2   :     0.031400
      dxy     :     0.020351

 30 C s       :     0.982025  s :     0.982025
      pz      :     0.975586  p :     2.874801
      px      :     0.938308
      py      :     0.960907
      dz2     :     0.011030  d :     0.098068
      dxz     :     0.026295
      dyz     :     0.011103
      dx2y2   :     0.022880
      dxy     :     0.026761

 31 C s       :     0.976374  s :     0.976374
      pz      :     0.971987  p :     2.888706
      px      :     0.961246
      py      :     0.955473
      dz2     :     0.013929  d :     0.089545
      dxz     :     0.021864
      dyz     :     0.009577
      dx2y2   :     0.019458
      dxy     :     0.024718

 32 C s       :     1.058302  s :     1.058302
      pz      :     0.878193  p :     2.512686
      px      :     0.882517
      py      :     0.751976
      dz2     :     0.020603  d :     0.188132
      dxz     :     0.034739
      dyz     :     0.029993
      dx2y2   :     0.051690
      dxy     :     0.051107

 33 F s       :     1.884572  s :     1.884572
      pz      :     1.873442  p :     5.307855
      px      :     1.831436
      py      :     1.602977
      dz2     :     0.003161  d :     0.023950
      dxz     :     0.002558
      dyz     :     0.005404
      dx2y2   :     0.005910
      dxy     :     0.006916

 34 C s       :     0.969324  s :     0.969324
      pz      :     0.992409  p :     2.873917
      px      :     0.898520
      py      :     0.982987
      dz2     :     0.007556  d :     0.086987
      dxz     :     0.018971
      dyz     :     0.011587
      dx2y2   :     0.026539
      dxy     :     0.022334

 35 C s       :     1.059525  s :     1.059525
      pz      :     0.776414  p :     2.556165
      px      :     0.870993
      py      :     0.908758
      dz2     :     0.045840  d :     0.185183
      dxz     :     0.050635
      dyz     :     0.030180
      dx2y2   :     0.023643
      dxy     :     0.034884

 36 F s       :     1.886172  s :     1.886172
      pz      :     1.648546  p :     5.318361
      px      :     1.797320
      py      :     1.872495
      dz2     :     0.005828  d :     0.023596
      dxz     :     0.007286
      dyz     :     0.004956
      dx2y2   :     0.002545
      dxy     :     0.002981

 37 C s       :     0.960491  s :     0.960491
      pz      :     0.990722  p :     2.915641
      px      :     0.917730
      py      :     1.007189
      dz2     :     0.022215  d :     0.087023
      dxz     :     0.021699
      dyz     :     0.009783
      dx2y2   :     0.014019
      dxy     :     0.019308

 38 H s       :     0.926360  s :     0.926360
      pz      :     0.021943  p :     0.044775
      px      :     0.011807
      py      :     0.011025

 39 H s       :     0.918704  s :     0.918704
      pz      :     0.011708  p :     0.045071
      px      :     0.013044
      py      :     0.020320

 40 H s       :     0.926274  s :     0.926274
      pz      :     0.014516  p :     0.044776
      px      :     0.013300
      py      :     0.016960

 41 H s       :     0.914140  s :     0.914140
      pz      :     0.021848  p :     0.043098
      px      :     0.011015
      py      :     0.010234

 42 H s       :     0.914661  s :     0.914661
      pz      :     0.013783  p :     0.043080
      px      :     0.012359
      py      :     0.016938

 43 H s       :     0.911627  s :     0.911627
      pz      :     0.014055  p :     0.044189
      px      :     0.012212
      py      :     0.017922

 44 H s       :     0.911923  s :     0.911923
      pz      :     0.022622  p :     0.044196
      px      :     0.010655
      py      :     0.010920

 45 H s       :     0.916271  s :     0.916271
      pz      :     0.020536  p :     0.051287
      px      :     0.014678
      py      :     0.016074

 46 H s       :     0.898169  s :     0.898169
      pz      :     0.015579  p :     0.052183
      px      :     0.014327
      py      :     0.022277

 47 H s       :     0.880608  s :     0.880608
      pz      :     0.020895  p :     0.055296
      px      :     0.012850
      py      :     0.021551

 48 H s       :     0.903412  s :     0.903412
      pz      :     0.015414  p :     0.052488
      px      :     0.017400
      py      :     0.019673

 49 H s       :     0.899238  s :     0.899238
      pz      :     0.014391  p :     0.052302
      px      :     0.011422
      py      :     0.026488

 50 H s       :     0.911008  s :     0.911008
      pz      :     0.019236  p :     0.051458
      px      :     0.011521
      py      :     0.020701

 51 H s       :     0.915976  s :     0.915976
      pz      :     0.016058  p :     0.051097
      px      :     0.018598
      py      :     0.016442

 52 H s       :     0.899005  s :     0.899005
      pz      :     0.017094  p :     0.052281
      px      :     0.013651
      py      :     0.021536

 53 H s       :     0.916408  s :     0.916408
      pz      :     0.023642  p :     0.051310
      px      :     0.011905
      py      :     0.015763



                     *******************************
                     * LOEWDIN POPULATION ANALYSIS *
                     *******************************

----------------------
LOEWDIN ATOMIC CHARGES
----------------------
   0 C :   -0.110656
   1 C :   -0.079756
   2 C :   -0.071036
   3 C :   -0.017497
   4 C :   -0.031162
   5 C :    0.048208
   6 F :   -0.065345
   7 C :   -0.038253
   8 C :   -0.016948
   9 C :   -0.015047
  10 C :    0.056603
  11 F :   -0.049535
  12 C :   -0.030722
  13 C :   -0.026728
  14 O :   -0.095398
  15 O :    0.034514
  16 C :   -0.008836
  17 C :   -0.010376
  18 C :    0.045440
  19 F :   -0.066787
  20 C :   -0.039824
  21 C :   -0.031677
  22 C :   -0.021840
  23 C :    0.037265
  24 F :   -0.062724
  25 C :    0.038297
  26 F :   -0.056032
  27 C :    0.038664
  28 F :   -0.060362
  29 C :   -0.012869
  30 C :   -0.017480
  31 C :   -0.028939
  32 C :    0.052548
  33 F :   -0.059981
  34 C :   -0.016808
  35 C :    0.048133
  36 F :   -0.067048
  37 C :   -0.031658
  38 H :    0.043121
  39 H :    0.046549
  40 H :    0.043207
  41 H :    0.045913
  42 H :    0.045618
  43 H :    0.053464
  44 H :    0.053417
  45 H :    0.054283
  46 H :    0.059325
  47 H :    0.057489
  48 H :    0.056664
  49 H :    0.059070
  50 H :    0.054938
  51 H :    0.055830
  52 H :    0.058687
  53 H :    0.054078

-------------------------------
LOEWDIN REDUCED ORBITAL CHARGES
-------------------------------
  0 C s       :     0.766770  s :     0.766770
      pz      :     1.065984  p :     3.098567
      px      :     0.964559
      py      :     1.068023
      dz2     :     0.050788  d :     0.245319
      dxz     :     0.053997
      dyz     :     0.031839
      dx2y2   :     0.046702
      dxy     :     0.061993

[...]
  28 F       0.069415     -0.024465     -0.052619      0.084762      0.016821     -0.108213     -0.037280      0.069299      0.023751     -0.075094
  29 C       0.443165      0.059671      0.063170      0.408844      0.005647     -0.187880     -0.048134      0.028317      0.051364     -0.058135
  30 C      -0.343797      0.069435     -0.027824     -0.237550      0.252750      0.166757     -0.139678      0.055947      0.088269     -0.042533
  31 C       0.481483     -0.237376      0.134073      0.205197     -0.133065     -0.116473      0.074238     -0.097466      0.270038     -0.194046
  32 C      -0.494058     -0.140000      0.059800     -0.085408     -0.024081      0.191241     -0.125814     -0.036692      0.035030     -0.106029
  33 F      -0.018020     -0.018904     -0.081601     -0.032787      0.007285     -0.127383      0.061337      0.006602      0.071267      0.052997
  34 C       0.647792     -0.135555     -0.176015     -0.175178      0.071968     -0.234562      0.114831     -0.032129      0.082524     -0.004532
  35 C      -0.537767     -0.052302      0.266546      0.012816     -0.011903     -0.061790     -0.112645      0.196203      0.071752     -0.037039
  36 F      -0.026706      0.104648     -0.028199     -0.015875      0.037179      0.010528      0.070743     -0.117629     -0.051158     -0.051795
  37 C       0.500045      0.143816      0.021278     -0.058196      0.260873     -0.020021      0.108609     -0.236107     -0.011696     -0.078334
  38 H      -0.005194      0.010880      0.047269      0.001296      0.018845     -0.012867      0.002599     -0.008885      0.021424     -0.000801
  39 H       0.003054     -0.054600     -0.029813     -0.019706     -0.004819     -0.007939      0.001552     -0.009545     -0.002641     -0.021855
  40 H       0.003775      0.042644     -0.045370      0.013014     -0.009765     -0.006284     -0.001709     -0.008886     -0.007424      0.011289
  41 H      -0.008476      0.015664     -0.047788      0.007070     -0.021443      0.007023     -0.000332      0.003265     -0.022939      0.008702
  42 H      -0.020374     -0.024358      0.058924     -0.007452      0.017160      0.002381      0.000617      0.001360      0.012813     -0.003520
  43 H       0.018831      0.022745     -0.052486      0.006181     -0.012512     -0.001340     -0.001296      0.002393     -0.012169      0.001870
  44 H       0.009963     -0.015825      0.043232     -0.004514      0.015786     -0.005634     -0.000577     -0.000967      0.021550     -0.007400
  45 H       0.036156      0.011003     -0.033125      0.002927     -0.012041      0.009244     -0.000514      0.008553     -0.009141      0.005661
  46 H       0.038206      0.037240     -0.011264      0.014781     -0.001868      0.010245     -0.000116      0.008452     -0.006276      0.012160
  47 H       0.015699      0.034260     -0.036612      0.014413     -0.010324      0.004969     -0.001096      0.005001     -0.013792      0.013460
  48 H       0.039783     -0.034991     -0.014433     -0.011892     -0.008659      0.011588     -0.000343      0.010602     -0.004883     -0.009353
  49 H       0.026674      0.048449     -0.000251      0.018545      0.000126      0.006814      0.000013      0.004771     -0.000301      0.013106
  50 H      -0.020691     -0.034884      0.034185     -0.015637      0.018449     -0.004051     -0.000631     -0.004770      0.015322     -0.012813
  51 H       0.036784     -0.027814      0.022293     -0.007583      0.006885      0.009680      0.000279      0.009694      0.011775     -0.011832
  52 H       0.037995     -0.035412      0.015975     -0.013513      0.006606      0.009171     -0.000754      0.008088      0.008142     -0.011806
  53 H       0.027867     -0.009732      0.037626     -0.006507      0.014075      0.006586      0.000339      0.007182      0.011518     -0.005716

 MBIS THIRD RADIAL MOMENT (A.U.):
  ATOM      <r^3>
   0 C   44.315079
   1 C   40.814933
   2 C   41.879316
   3 C   33.495076
   4 C   41.041690
   5 C   29.765196
   6 F   18.077471
   7 C   38.861252
   8 C   32.194666
   9 C   40.448155
  10 C   28.763744
  11 F   18.090307
  12 C   41.946940
  13 C   22.266099
  14 O   25.734385
  15 O   23.924416
  16 C   29.505958
  17 C   41.287796
  18 C   29.754206
  19 F   18.096133
  20 C   37.151323
  21 C   33.505414
  22 C   39.955310
  23 C   31.655124
  24 F   18.110553
  25 C   33.828136
  26 F   17.902057
  27 C   31.609188
  28 F   18.089350
  29 C   39.659297
  30 C   36.594307
  31 C   39.782400
  32 C   28.931404
  33 F   18.106861
  34 C   40.524396
  35 C   29.794910
  36 F   18.095228
  37 C   41.057475
  38 H    2.379589
  39 H    2.353167
  40 H    2.378335
  41 H    2.284608
  42 H    2.288852
  43 H    2.210941
  44 H    2.212291
  45 H    2.015500
  46 H    1.907725
  47 H    1.791216
  48 H    1.972648
  49 H    1.923184
  50 H    2.132771
  51 H    2.043959
  52 H    1.914457
  53 H    2.018086

-------------------------
RESP CHARGES GENERATION
-------------------------
Number of atoms                    ...           54
Number of "pure atoms"             ...           54
Grid spacing                       ...     0.300000
Point Cut-Off                      ...     2.800000
Van-der-Waals Radii                ...        COSMO
Total charge                       ...            0
Penalty function                   ... hyperbolic
Penalty function wa                ... 0.000500
Penalty function wb                ... 0.100000
Dipole moment constraint           ...        FALSE
Equivalent atom charge constraint  ...        FALSE

Grid generated                     ...      0.0 sec
Grid points                        ...        28293
Potential calculated               ...     10.6 sec
RespFile stored                    ...           ok

Iter     dqmax
--------------

0     0.925341
1     0.038673
2     0.004772
3     0.000619
4     0.000080
5     0.000010
6     0.000001
7     0.000000

Charges calculated                 ...      1.7 sec

RESP Charges            
--------------------------------
  0   C   :      -0.459141
  1   C   :       0.252745
  2   C   :      -0.101385
  3   C   :       0.089320
  4   C   :      -0.401037
  5   C   :       0.353844
  6   F   :      -0.199786
  7   C   :      -0.251898
  8   C   :       0.423974
  9   C   :      -0.533934
 10   C   :       0.543316
 11   F   :      -0.215549
 12   C   :      -0.598058
 13   C   :       0.918404
 14   O   :      -0.526930
 15   O   :      -0.391896
 16   C   :       0.426702
 17   C   :      -0.519143
 18   C   :       0.373903
 19   F   :      -0.199409
 20   C   :      -0.005899
 21   C   :       0.135726
 22   C   :      -0.401813
 23   C   :       0.287710
 24   F   :      -0.180891
 25   C   :       0.103629
 26   F   :      -0.152067
 27   C   :       0.318387
 28   F   :      -0.184911
 29   C   :      -0.423306
 30   C   :      -0.204175
 31   C   :      -0.323001
 32   C   :       0.531827
 33   F   :      -0.219821
 34   C   :      -0.538171
 35   C   :       0.346978
 36   F   :      -0.200137
 37   C   :      -0.397167
 38   H   :       0.108559
 39   H   :       0.113006
 40   H   :       0.107255
 41   H   :      -0.013435
 42   H   :      -0.015458
 43   H   :       0.065826
 44   H   :       0.065107
 45   H   :       0.222436
 46   H   :       0.251626
 47   H   :       0.275782
 48   H   :       0.229788
 49   H   :       0.241649
 50   H   :       0.186578
 51   H   :       0.212552
 52   H   :       0.250186
 53   H   :       0.221603
--------------------------------
Total charge:     0.000000
--------------------------------

RESP charges calculated...

Timings:
Grid generation                 ...        0.023 sec (=   0.000 min)
Potential calculation           ...       10.596 sec (=   0.177 min)
Fit to the potential            ...        1.711 sec (=   0.029 min)
------------------------------------------------------------------------------

-------
TIMINGS
-------

Total SCF time: 0 days 0 hours 12 min 20 sec 

Total time                  ....     740.403 sec
Sum of individual times     ....     717.606 sec  ( 96.9%)

SCF preparation             ....       2.185 sec  (  0.3%)
Fock matrix formation       ....     590.192 sec  ( 79.7%)
  Startup                   ....       0.052 sec  (  0.0% of F)
  Split-RI-J                ....      46.049 sec  (  7.8% of F)
  Chain of spheres X        ....     547.482 sec  ( 92.8% of F)
  XC integration            ....      18.283 sec  (  3.1% of F)
    XC Preparation          ....       0.000 sec  (  0.0% of XC)
    Basis function eval.    ....       4.697 sec  ( 25.7% of XC)
    Density eval.           ....       3.957 sec  ( 21.6% of XC)
    XC-Functional eval.     ....       1.142 sec  (  6.2% of XC)
    XC-Potential eval.      ....       4.793 sec  ( 26.2% of XC)
Diagonalization             ....       0.000 sec  (  0.0%)
Density matrix formation    ....       0.562 sec  (  0.1%)
Total Energy calculation    ....       0.248 sec  (  0.0%)
Population analysis         ....     121.115 sec  ( 16.4%)
Orbital Transformation      ....       0.321 sec  (  0.0%)
Orbital Orthonormalization  ....       0.000 sec  (  0.0%)
DIIS solution               ....       1.969 sec  (  0.3%)
SOSCF solution              ....       1.013 sec  (  0.1%)
Finished LeanSCF after 740.5 sec

Maximum memory used throughout the entire LEANSCF-calculation: 117.1 MB


-------------------------------------------------------------------------------
                          DFT DISPERSION CORRECTION                            
                                                                               
                                DFTD4 V3.4.0                                   
-------------------------------------------------------------------------------
The wB97X-3c composite method is recognized
Using three-body term ABC
Active option DFTDOPT                   ...         5   

-------------------------   ----------------
Dispersion correction           -0.087663782
-------------------------   ----------------


-------------------------   --------------------
FINAL SINGLE POINT ENERGY      -395.799689250029
-------------------------   --------------------



           ************************************************************
           *        Program running with 4 parallel MPI-processes     *
           *              working on a common directory               *
           ************************************************************

------------------------------------------------------------------------------
                              ORCA PROPERTY CALCULATIONS
------------------------------------------------------------------------------

GBWName                                 ... conf_016.gbw
Number of atoms                         ...     54
Number of basis functions               ...    574
Max core memory                         ...   4000 MB

Electric properties:
Dipole moment                           ... YES
Quadrupole moment                       ...  NO
Static polarizability (Dipole/Dipole)   ...  NO
Static polarizability (Dipole/Quad.)    ...  NO
Static polarizability (Quad./Quad.)     ...  NO
Static polarizability (Velocity)        ...  NO
Static hyperpolarizability              ...  NO

Atomic electric properties:
Dipole moment                           ...  NO
Quadrupole moment                       ...  NO
Static polarizability                   ...  NO

Choice of electric origin               ... Center of mass
Position of electric origin             ...    -2.997596     0.059046     0.009366

General magnetic properties:
Magnetizability                         ...  NO

EPR properties:
g-Tensor (aka g-matrix)                 ...  NO
Zero-Field splitting spin-orbit         ...  NO
Zero-field splitting spin-spin          ...  NO
Hyperfine couplings                     ...  NO (   0 nuclei)
Quadrupole couplings                    ...  NO (   0 nuclei)
Contact density                         ...  NO (   0 nuclei)

NMR properties:
Chemical shifts                         ...  NO (   0 nuclei)
Spin-rotation constants                 ...  NO (   0 nuclei)
Spin-spin couplings                     ...  NO (   0 nuclei,    0 pairs)

Choice of magnetic origin               ... GIAO
Position of magnetic origin             ...     0.000000     0.000000     0.000000

Properties with geometric perturbations:
SCF Hessian                             ...  NO
IR spectrum                             ...  NO
VCD spectrum                            ...  NO
X-ray spectroscopy properties:
SCF XES/XAS/RIXS spectra                ...  NO

SCF SOC stabilization energy            ...  NO
Diagonal Born-Oppenheimer correction    ...  NO

-------------
DIPOLE MOMENT
-------------

Method             : SCF
Type of density    : Electron Density
Multiplicity       :   1
Irrep              :   0
Energy             :  -395.7120254680227731 Eh
Basis              : AO
                                X                 Y                 Z
Electronic contribution:    -71.738706976       1.871293346       0.169240380
Nuclear contribution   :     75.743314947      -2.136240448       0.623519509
                        -----------------------------------------
Total Dipole Moment    :      4.004607971      -0.264947102       0.792759888
                        -----------------------------------------
Magnitude (a.u.)       :      4.090910682
Magnitude (Debye)      :     10.398268590



--------------------
Rotational spectrum 
--------------------
 
Rotational constants in cm-1:             0.012206             0.000757             0.000730 
Rotational constants in MHz :           365.923414            22.704469            21.876721 

Dipole components along the rotational axes: 
x,y,z [a.u.] :    -3.876434     1.208577    -0.498151 
x,y,z [Debye]:    -9.853111     3.071959    -1.266200 

 

Dipole moment calculation done in   0.0 sec 

Maximum memory used throughout the entire PROP-calculation: 57.6 MB

--------------------------------
SUGGESTED CITATIONS FOR THIS RUN
--------------------------------

Below you find a list of papers that are relevant to this ORCA run
We neither can nor want to force you to cite these papers, but we appreciate if you do
You receive ORCA, which is the product of decades of hard work by many enthusiastic individuals, for free
The only thing we kindly ask in return is that you cite our papers,
We deeply appreciate it, if you show your appreciation for ORCA by not just citing the generic ORCA reference.

Please note that relegating all ORCA citations to the supporting information does *not* help us.
SI sections are not indexed - citations you put there will not count into any citation statistics
But we need these citations in order to attract the funding resources that allow us to do what we are doing

Therefore, if you are a happy ORCA user, please consider citing a few of the papers listed below in the main body of your paper

In addition to the list printed below, the program has created the file conf_016.bibtex that contains the list in bibtex format
You can import this file easily into all common literature databanks and citation aid programs


List of essential papers. We consider these as the minimum necessary citations

  1. Mueller, M.; Hansen, A.; Grimme, S.
     wB97X-3c: A composite range-separated hybrid DFT method with a molecule-optimized polarized valence double-zeta basis set
     J. Chem. Phys. 2023 158 , 014103
     doi.org/10.1063/5.0133026
  2. Neese, F.
     Software update: the ORCA program system, version 6.0
     WIRES Comput. Molec. Sci. 2025 15(1), e70019
     doi.org/10.1002/wcms.7019

List of papers to cite with high priority. The work reported in these papers was absolutely
necessary for this run to complete.
Our perspective: the developers of density functionals and basis sets usually get cited in chemistry papers
Good! But without the algorithms to do something with them, the functionals or basis sets would not do anything.
Hence, in our opinion, the algorithm design and method developments papers are equally worthy of getting cited

  1. Neese, F.
     An improvement of the resolution of the identity approximation for the formation of the Coulomb matrix
     J. Comp. Chem. 2003 24(14), 1740-1747
     doi.org/10.1002/jcc.10318
  2. Neese, F.; Wennmohs, F.; Hansen, A.; Becker, U.
     Efficient, approximate and parallel Hartree-Fock and hybrid DFT calculations. A 'chain-of-spheres' algorithm for the Hartree-Fock exchange
     Chem. Phys. 2009 356(1-3), 98-109
     doi.org/10.1016/j.chemphys.2008.10.036
  3. Caldeweyher, E.; Bannwarth, C.; Grimme, S.
     Extension of the D3 dispersion coefficient model
     J. Chem. Phys. 2017 147 , 034112
     doi.org/10.1063/1.4993215
  4. Caldeweyher, E.; Ehlert, S.; Hansen, A.; Neugebauer, H.; Spicher, S.; Bannwarth, C.; Grimme, S.
     A generally applicable atomic-charge dependent London dispersion correction
     J. Chem. Phys. 2019 150 , 154122
     doi.org/10.1063/1.5090222
  5. Caldeweyher, E.; Mewes, J.; Ehlert, S.; Grimme, S.
     Extension and evaluation of the D4 London-dispersion model for periodic systems
     Phys. Chem. Chem. Phys. 2020 22(16), 8499-8512
     doi.org/10.1039/D0CP00502A
  6. Helmich-Paris, B.; de Souza, B.; Neese, F.; Izsák, R.
     An improved chain of spheres for exchange algorithm
     J. Chem. Phys. 2021 155(10), 104109
     doi.org/10.1063/5.0058766
  7. Neese, F.
     The SHARK Integral Generation and Digestion System
     J. Comp. Chem. 2022 44(3), 381
     doi.org/10.1002/jcc.26942
  8. Wittmann, L.; Gordiy, I.; Friede, M.; Helmich-Paris, B.; Grimme, S.; Hansen, A.; Bursch, M.
     Extension of the D3 and D4 London Dispersion Corrections to the full Actinides Series
     Phys. Chem. Chem. Phys. 2024 26(32), 21379-21394
     doi.org/10.1039/D4CP01514B

List of suggested additional citations. These are papers that are important in the 'surrounding' of 
of this run, or papers that preceded the highly important papers. If you like your results we are grateful for a citation.

  1. Izsak, R.; Neese, F.
     An overlap fitted chain of spheres exchange method
     J. Chem. Phys. 2011 135 , 144105
     doi.org/10.1063/1.3646921
  2. Izsak, R.; Hansen, A.; Neese, F.
     The resolution of identity and chain of spheres approximations for the LPNO-CCSD singles Fock term
     Molec. Phys. 2012 110 , 2413-2417
     doi.org/10.1080/00268976.2012.687466
  3. Neese, F.
     The ORCA program system
     WIRES Comput. Molec. Sci. 2012 2(1), 73-78
     doi.org/10.1002/wcms.81
  4. Izsak, R.; Neese, F.; Klopper, W.
     Robust fitting techniques in the chain of spheres approximation to the Fock exchange: The role of the complementary space
     J. Chem. Phys. 2013 139 , 
     doi.org/10.1063/1.4819264
  5. Neese, F.
     Software update: the ORCA program system, version 4.0
     WIRES Comput. Molec. Sci. 2018 8(1), 1-6
     doi.org/10.1002/wcms.1327
  6. Neese, F.; Wennmohs, F.; Becker, U.; Riplinger, C.
     The ORCA quantum chemistry program package
     J. Chem. Phys. 2020 152(22), 224108
     doi.org/10.1063/5.0004608
  7. Neese, F.
     Software update: The ORCA program system—Version 5.0
     WIRES Comput. Molec. Sci. 2022 12(1), e1606
     doi.org/10.1002/wcms.1606

List of optional additional citations

  1. Neese, F.
     Approximate second-order SCF convergence for spin unrestricted wavefunctions
     Chem. Phys. Lett. 2000 325(1-3), 93-98
     doi.org/10.1016/s0009-2614(00)00662-x

Timings for individual modules:

Sum of individual times          ...      766.401 sec (=  12.773 min)
Startup calculation              ...       11.955 sec (=   0.199 min)   1.6 %
SCF iterations                   ...      752.494 sec (=  12.542 min)  98.2 %
Property calculations            ...        1.952 sec (=   0.033 min)   0.3 %
                             ****ORCA TERMINATED NORMALLY****
TOTAL RUN TIME: 0 days 0 hours 12 minutes 48 seconds 300 msec
