Loading openmpi/5.0.6/gcc-14.2.0
  Loading requirement: gcc/14.2.0

                                 *****************
                                 * O   R   C   A *
                                 *****************

                                            #,                                       
                                            ###                                      
                                            ####                                     
                                            #####                                    
                                            ######                                   
                                           ########,                                 
                                     ,,################,,,,,                         
                               ,,#################################,,                 
                          ,,##########################################,,             
                       ,#########################################, ''#####,          
                    ,#############################################,,   '####,        
                  ,##################################################,,,,####,       
                ,###########''''           ''''###############################       
              ,#####''   ,,,,##########,,,,          '''####'''          '####       
            ,##' ,,,,###########################,,,                        '##       
           ' ,,###''''                  '''############,,,                           
         ,,##''                                '''############,,,,        ,,,,,,###''
      ,#''                                            '''#######################'''  
     '                                                          ''''####''''         
             ,#######,   #######,   ,#######,      ##                                
            ,#'     '#,  ##    ##  ,#'     '#,    #''#        ,####,    ,#,          
            ##       ##  ##   ,#'  ##            #'  '#       #'       ,# #          
            ##       ##  #######   ##           ,######,      #####,      #          
            '#,     ,#'  ##    ##  '#,     ,#' ,#      #,     #,   #      #          
             '#######'   ##     ##  '#######'  #'      '#     '####' #    #          



                #########################################################
                #                        -***-                          #
                #          Department of theory and spectroscopy        #
                #                                                       #
                #                      Frank Neese                      #
                #                                                       #
                #     Directorship, Architecture, Infrastructure        #
                #                    SHARK, DRIVERS                     #
                #        Core code/Algorithms in most modules           #
                #                                                       #
                #        Max Planck Institute fuer Kohlenforschung      #
                #                Kaiser Wilhelm Platz 1                 #
                #                 D-45470 Muelheim/Ruhr                 #
                #                      Germany                          #
                #                                                       #
                #                  All rights reserved                  #
                #                        -***-                          #
                #########################################################


                         Program Version 6.1.0  -  RELEASE   -
                                (GIT: $679e74b$)
                          ($2025-06-10 18:02:51 +0200$)


 With contributions from (in alphabetic order):
[Max-Planck-Institut fuer Kohlenforschung]                               
  Daniel Aravena         : Magnetic Suceptibility                        
  Michael Atanasov       : Ab Initio Ligand Field Theory (pilot matlab implementation)
  Alexander A. Auer      : GIAO ZORA, VPT2 properties, NMR spectrum      
  Ute Becker             : All parallelization in ORCA, NUMFREQ, NUMCALC 
  Giovanni Bistoni       : ED, misc. LED, open-shell LED, HFLD           
  Dmytro Bykov           : pre 5.0 version of the SCF Hessian            
  Marcos Casanova-Páez   : Triplet and SCS-CIS(D). UHF-(DLPNO)-IP/EA/STEOM-CCSD. UHF-CVS-IP/STEOM-CCSD   
  Vijay G. Chilkuri      : MRCI spin determinant printing, contributions to CSF-ICE 
  Pauline Colinet        : FMM embedding                                 
  Dipayan Datta          : RHF DLPNO-CCSD density                        
  Achintya Kumar Dutta   : EOM-CC, STEOM-CC                              
  Nicolas Foglia         : Exact transition moments, OPA infrastructure, MCD improvements    
  Dmitry Ganyushin       : Spin-Orbit,Spin-Spin,Magnetic field MRCI      
  Miquel Garcia-Rates    : C-PCM and meta-GGA Hessian, CCSD/C-PCM, Gaussian charge scheme 
  Tiago L. C. Gouveia    : GS-ROHF, GS-ROCIS                             
  Yang Guo               : DLPNO-NEVPT2, F12-NEVPT2, CIM, IAO-localization        
  Andreas Hansen         : Spin unrestricted coupled pair/coupled cluster methods 
  Ingolf Harden          : AUTO-CI MPn and infrastructure                
  Benjamin Helmich-Paris : MC-RPA, TRAH-(SCF,CASSCF), AVAS, COSX integrals, SCF dyn. polar., MC-PDFT, srDFT 
  Lee Huntington         : MR-EOM, pCC                                   
  Robert Izsak           : Overlap fitted RIJCOSX, COSX-SCS-MP3, EOM     
  Riya Kayal             : Wick's Theorem for AUTO-CI, AUTO-CI UHF-CCSDT 
  Emily Kempfer          : AUTO-CI RHF CISDT and CCSDT, approximate NEVPT4
  Christian Kollmar      : KDIIS, OOCD, Brueckner-CCSD(T), CCSD density, CASPT2, CASPT2-K, improved NEVPT2 
  Axel Koslowski         : Symmetry handling                             
  Simone Kossmann        : meta-GGA functionals, TD-DFT gradient, OOMP2, (MP2 Hessian; deprecated post 5.0) 
  Lucas Lang             : DCDCAS, Hyperfine gauge corrections, ICE-SOC+SSC
  Marvin Lechner         : AUTO-CI (C++ implementation), FIC-MRCC        
  Spencer Leger          : CASSCF response                               
  Dagmar Lenk            : GEPOL surface, SMD, ORCA-2-JSON               
  Dimitrios Liakos       : Extrapolation schemes; Compound Job, Property file
  Dimitrios Manganas     : Further ROCIS development; embedding schemes. LFT, Crystal Embedding 
  Dimitrios Pantazis     : SARC Basis sets                               
  Anastasios Papadopoulos: AUTO-CI, single reference methods and gradients 
  Taras Petrenko         : pre 6.0 DFT Hessian and TD-DFT gradient,  ECA, NRVS 
  Petra Pikulova         : Analytic Raman intensities                    
  Peter Pinski           : DLPNO-MP2, DLPNO-MP2 Gradient                 
  Shashank Vittal Rao    : ES-AILFT, MagRelax                            
  Christoph Reimann      : Effective Core Potentials                     
  Marius Retegan         : Local ZFS, SOC                                
  Christoph Riplinger    : Optimizer, TS searches, QM/MM, DLPNO-CCSD(T), (RO)-DLPNO pert. Triples 
  Michael Roemelt        : Original ROCIS implementation, recursive CI coupling coefficients
  Masaaki Saitow         : Open-shell DLPNO-CCSD energy and density      
  Barbara Sandhoefer     : DKH picture change effects                    
  Yorick L. A. Schmerwitz: GMF and freeze-and-release deltaSCF, NEB S-IDPP initial path                    
  Kantharuban Sivalingam : CASSCF convergence/infrastructure, NEVPT2, NEVPT3, NEVPT4(SD), FIC-MRCI and CEPA variants
  Bernardo de Souza      : ESD, SOC TD-DFT                               
  Georgi L. Stoychev     : AutoAux, RI-MP2 NMR, DLPNO-MP2 response, X2C  
  Van Anh Tran           : RI-MP2 g-tensors                              
  Willem Van den Heuvel  : Paramagnetic NMR                              
  Zikuan Wang            : NOTCH, Electric field optimization            
  Frank Wennmohs         : Technical directorship and infrastructure     
  Hang Xu                : AUTO-CI-Response properties                   
                                                                         
[FACCTs GmbH]                                                            
  Markus Bursch, Nicolas Foglia, Miquel Garcia-Rates, Ingolf Harden, Hagen Neugebauer, Anastasios Papadopoulos, 
  Christoph Riplinger, Bernardo de Souza, Georgi L. Stoychev                                                    
                                                                 
  APM, various basis sets, CI-OPT, improved COSX, DLPNO-Multilevel,           
  DOCKER, DRACO, updates on ESD, Fragmentator, GOAT, IRC, LR-CPCM, L-BFGS, MBIS, meta-GGA TD-DFT gradient, ML-optimized integration grids, 
  MM, NACMEs, nearIR, NEB, NEB-TS, NL-DFT gradient (VV10), 2- and 3-layer-ONIOM, interface openCOSMO-RS, QMMM,   
  Crystal-QMMM, RESP, rigid body optimization, SF, symmetry and pop. for TD-DFT, various functionals, SOLVATOR                                   
                                                                         
[Other institutions]                                                     
  V. Asgeirsson          : NEB                                           
  Christoph Bannwarth    : sTDA-DFT, sTD-DFT, PBEh-3c, B97-3c, D3        
  Giovanni Bistoni       : ETS/NOCV, ADLD/ADEX, COVALED                  
  Martin Brehm           : Molecular dynamics                            
  Ronald Cardenas        : ETS/NOCV                                      
  Martina Colucci        : COVALED                                       
  Sebastian Ehlert       : rSCAN, r2SCAN, r2SCAN-3c, D4, dhf basis sets  
  Marvin Friede          : D4 for Fr, Ra, Ac-Lr                          
  Lars Goerigk           : TD-DFT with DH, B97 family of functionals     
  Stefan Grimme          : VdW corrections, initial TS optimization, DFT functionals, gCP, sTDA/sTD-DF 
  Waldemar Hujo          : DFT-NL                                        
  H. Jonsson             : NEB                                           
  Holger Kruse           : gCP                                           
  Marcel Mueller         : wB97X-3c, vDZP basis set                      
  Hagen Neugebauer       : wr2SCAN, Native XTB                           
  Gianluca Regni         : ADLD/ADEX                                     
  Tobias Risthaus        : pre 6.0 range-separated hybrid DFT and stability analysis
  Lukas Wittmann         : regularized MP2, r2SCAN double-hybrids, wr2SCAN        
                                                                         
We gratefully acknowledge several colleagues who have allowed us to      
interface, adapt or use parts of their codes:                            
  Ed Valeev, F. Pavosevic, A. Kumar             : LibInt (2-el integral package), F12 methods 
  Garnet Chan, S. Sharma, J. Yang, R. Olivares  : DMRG                   
  Ulf Ekstrom                                   : XCFun DFT Library      
  Mihaly Kallay                                 : mrcc  (arbitrary order and MRCC methods)
  Frank Weinhold                                : gennbo (NPA and NBO analysis)           
  Simon Mueller                                 : openCOSMO-RS                            
  Christopher J. Cramer and Donald G. Truhlar   : smd solvation model                     
  S Lehtola, MJT Oliveira, MAL Marques          : LibXC Library                           
  Liviu Ungur et al                             : ANISO software                          


 Your calculation uses the libint2 library for the computation of 2-el integrals
 For citations please refer to: http://libint.valeyev.net

 Your ORCA version has been built with support for libXC version: 7.0.0
 For citations please refer to: https://libxc.gitlab.io

 This ORCA versions uses:
   CBLAS   interface :  Fast vector & matrix operations
   LAPACKE interface :  Fast linear algebra routines
   SCALAPACK package :  Parallel linear algebra routines
   Shared memory     :  Shared parallel matrices
   BLAS/LAPACK       :  OpenBLAS 0.3.29  USE64BITINT DYNAMIC_ARCH NO_AFFINITY Cooperlake SINGLE_THREADED
        Core in use  :  Cooperlake
   Copyright (c) 2011-2014, The OpenBLAS Project


  ***********************************
  * Starting time: Wed May 13 14:55:46 2026
  * Host name:     node037.aire.lee.alces.network
  * Process ID:    1539379
  * Working dir.:  /tmp/job.4919732
  ***********************************

NOTE: MaxCore=4000 MB was set to SCF,MP2,MDCI,CIPSI,MRCI,RASCI and CIS
      => If you want to overwrite this, your respective input block should be placed after the MaxCore statement


***************************************
The coordinates will be read from file: conf_031.xyz
***************************************


Your calculation utilizes the atom-pairwise dispersion correction
based on EEQ partial charges (D4)


================================================================================

cite the ECPs for C  [vDZP-ECP], F  [vDZP-ECP], O  [vDZP-ECP] as follows:
   B-Ne (ecp-2-mwb), Al-Ar (ecp-10-mwb), Ga-Kr (ecp-28-mwb), Y-Cd (ecp-28-mwb), In-Xe (ecp-46-mwb):
     A. Bergner, M. Dolg, W. Küchle, H. Stoll, and H. Preuß, Mol. Phys. 80, 1431 (1993)., T. Leininger, A. Berning, A. Nicklass, H. Stoll, H.-J. Werner, and H.-J.Flad, Chem. Phys. 217, 19 (1997).
   Na-Mg, K-Ca, Rb-Sr, Cs-Ba (CRENBL):
     L. Fernandez Pacios and P. A. Christiansen, J. Chem. Phys. 82, 2664 (1985)., M. M. Hurley, L. F. Pacios, P. A. Christiansen, R. B. Ross, and W. C. Ermler, J. Chem. Phys. 84, 6840 (1986)., L. A. LaJohn, P. A. Christiansen, R. B. Ross, T. Atashroo, and W. C. Ermler, J. Chem. Phys. 87, 2812 (1987)., R. B. Ross, J. M. Powers, T. Atashroo, W. C. Ermler, L. A. LaJohn, and P. A. Christiansen, J. Chem. Phys. 93, 6654 (1990). 
   Sc-Zn (ecp-10-mdf):
     M. Dolg, U. Wedig, H. Stoll, and H. Preuss, J. Chem. Phys. 86, 866 (1986). 
   Y-Cd (ecp-28-mwb), Hf-Hg (ecp-60-mwb):
     D. Andrae, U. Häußermann, M. Dolg, H. Stoll, and H. Preuß, Theor. Chim. Acta 77, 123 (1990). 
   La (ecp-46-mwb):
     M. Dolg, H. Stoll, and H. Preuss, J. Chem. Phys. 90, 1730 (1989)., M. Dolg, H. Stoll, and H. Preuss, Theor. Chim. Acta 85, 441 (1993).
   Ce-Lu (SBKJC-ecp):
     T. R. Cundari and W. J. Stevens, J. Chem. Phys. 98, 5555 (1993).
   Tl-Rn (ecp-78-mwb):
     W. Küchle, M. Dolg, H. Stoll, and H. Preuss, Mol. Phys. 74, 1245 (1991).

ECP parameters for C  [vDZP-ECP], F  [vDZP-ECP], O  [vDZP-ECP] have been obtained from:
MM, AH, SG, J. Chem. Phys. 158, 014103 (2023), 10.1063/5.0133026

----- Orbital basis set information -----
Your calculation utilizes the basis: vDZP
   Marcel Mueller, Andreas Hansen, Stefan Grimme 
   J. Chem. Phys. 158, 014103 (2023). DOI: 10.1063/5.0133026

----- AuxJ basis set information -----
Your calculation utilizes the auxiliary basis: def2/J
   H-Rn: F. Weigend, Phys. Chem. Chem. Phys. 8, 1057 (2006).
   Fr-Lr: K. Eichkorn, F. Weigend, O. Treutler, R. Ahlrichs; Theor. Chem. Acc. 97, 119 (1997).

================================================================================
                                        WARNINGS
                       Please study these warnings very carefully!
================================================================================

WARNING: Frozen-Core approximation turned on, but there are no core electrons.
  ===> : Turning off frozen-core approximation


================================================================================
                                       INPUT FILE
================================================================================
NAME = conf_031.inp
|  1> ! wb97x-3c mbis hirshfeld chelpg resp
|  2> %pal nprocs 4 end
|  3> %maxcore 4000
|  4> %method
|  5> 	   MBIS_LARGEPRINT TRUE
|  6> 	end
|  7> #conf_031
|  8> * xyzfile 0 1 conf_031.xyz
|  9> 
| 10>                          ****END OF INPUT****
================================================================================

                       ****************************
                       * Single Point Calculation *
                       ****************************

---------------------------------
CARTESIAN COORDINATES (ANGSTROEM)
---------------------------------
  C      5.713281    4.133828   -2.082862
  C      4.829674    2.943096   -1.737085
  C      4.749029    2.727385   -0.218803
  C      3.874648    1.554342    0.096105
  C      4.407285    0.273621    0.178538
  C      3.581054   -0.806435    0.415956
  F      4.134124   -2.029708    0.501536
  C      2.204856   -0.678268    0.596382
  C      1.318284   -1.825389    0.843556
  C      1.392802   -2.961230    0.043473
  C      0.485012   -3.985522    0.230903
  F      0.522520   -5.035665   -0.597753
  C     -0.519440   -3.924302    1.194035
  C     -1.554423   -5.011166    1.312537
  O     -1.299515   -6.151580    1.549508
  O     -2.838111   -4.615214    1.151529
  C     -3.148834   -3.328735    0.771584
  C     -2.603088   -2.762358   -0.374242
  C     -2.884869   -1.442125   -0.662974
  F     -2.327174   -0.911405   -1.766690
  C     -3.723334   -0.664410    0.133124
  C     -3.959419    0.758150   -0.158090
  C     -5.248108    1.281340   -0.108211
  C     -5.459168    2.620918   -0.372108
  F     -6.705416    3.111239   -0.327980
  C     -4.400822    3.469354   -0.680401
  F     -4.612281    4.767105   -0.929333
  C     -3.117422    2.934411   -0.719494
  F     -2.080373    3.734744   -1.001473
  C     -2.891021    1.595677   -0.465713
  C     -4.316565   -1.287262    1.229682
  C     -4.032489   -2.598210    1.556428
  C     -0.522468   -2.802647    2.019199
  F     -1.437139   -2.720606    3.000948
  C      0.365736   -1.761017    1.857318
  C      1.705433    0.620753    0.504661
  F      0.375803    0.812710    0.632047
  C      2.503325    1.717235    0.254870
  H      6.724690    3.981080   -1.713078
  H      5.759048    4.270700   -3.160216
  H      5.319562    5.044789   -1.637956
  H      3.823696    3.105196   -2.128859
  H      5.227497    2.040761   -2.205737
  H      4.345412    3.627923    0.246292
  H      5.754133    2.558465    0.170375
  H      5.466036    0.104795    0.060663
  H      2.127787   -3.047823   -0.740400
  H     -1.966175   -3.327456   -1.036529
  H     -6.096098    0.653789    0.114178
  H     -1.879045    1.226090   -0.491715
  H     -4.976658   -0.713679    1.860986
  H     -4.460551   -3.060005    2.430840
  H      0.301884   -0.909549    2.515193
  H      2.047394    2.692269    0.185214

----------------------------
CARTESIAN COORDINATES (A.U.)
----------------------------
  NO LB      ZA    FRAG     MASS         X           Y           Z
   0 C     4.0000*   0    12.011   10.796536    7.811803   -3.936038
   1 C     4.0000*   0    12.011    9.126762    5.561645   -3.282615
   2 C     4.0000*   0    12.011    8.974364    5.154010   -0.413479
   3 C     4.0000*   0    12.011    7.322024    2.937281    0.181612
   4 C     4.0000*   0    12.011    8.328561    0.517069    0.337388
   5 C     4.0000*   0    12.011    6.767211   -1.523942    0.786042
   6 F     7.0000*   0    18.998    7.812362   -3.835592    0.947767
   7 C     4.0000*   0    12.011    4.166575   -1.281740    1.126999
   8 C     4.0000*   0    12.011    2.491196   -3.449485    1.594089
   9 C     4.0000*   0    12.011    2.632014   -5.595915    0.082152
  10 C     4.0000*   0    12.011    0.916540   -7.531544    0.436344
  11 F     7.0000*   0    18.998    0.987420   -9.516029   -1.129589
  12 C     4.0000*   0    12.011   -0.981599   -7.415856    2.256399
  13 C     4.0000*   0    12.011   -2.937433   -9.469732    2.480336
  14 O     6.0000*   0    15.999   -2.455727  -11.624801    2.928146
  15 O     6.0000*   0    15.999   -5.363253   -8.721491    2.176074
  16 C     4.0000*   0    12.011   -5.950435   -6.290397    1.458083
  17 C     4.0000*   0    12.011   -4.919124   -5.220099   -0.707216
  18 C     4.0000*   0    12.011   -5.451612   -2.725221   -1.252840
  19 F     7.0000*   0    18.998   -4.397722   -1.722305   -3.338560
  20 C     4.0000*   0    12.011   -7.036081   -1.255553    0.251568
  21 C     4.0000*   0    12.011   -7.482218    1.432695   -0.298746
  22 C     4.0000*   0    12.011   -9.917486    2.421382   -0.204488
  23 C     4.0000*   0    12.011  -10.316332    4.952818   -0.703181
  24 F     7.0000*   0    18.998  -12.671401    5.879389   -0.619793
  25 C     4.0000*   0    12.011   -8.316349    6.556129   -1.285772
  26 F     7.0000*   0    18.998   -8.715949    9.008524   -1.756185
  27 C     4.0000*   0    12.011   -5.891074    5.545233   -1.359646
  28 F     7.0000*   0    18.998   -3.931335    7.057643   -1.892509
  29 C     4.0000*   0    12.011   -5.463238    3.015392   -0.880071
  30 C     4.0000*   0    12.011   -8.157126   -2.432573    2.323762
  31 C     4.0000*   0    12.011   -7.620300   -4.909906    2.941223
  32 C     4.0000*   0    12.011   -0.987321   -5.296235    3.815733
  33 F     7.0000*   0    18.998   -2.715799   -5.141201    5.670970
  34 C     4.0000*   0    12.011    0.691142   -3.327839    3.509822
  35 C     4.0000*   0    12.011    3.222802    1.173052    0.953672
  36 F     7.0000*   0    18.998    0.710164    1.535800    1.194396
  37 C     4.0000*   0    12.011    4.730599    3.245105    0.481635
  38 H     1.0000    0     1.008   12.707822    7.523150   -3.237249
  39 H     1.0000    0     1.008   10.883024    8.070454   -5.971943
  40 H     1.0000    0     1.008   10.052515    9.533269   -3.095289
  41 H     1.0000    0     1.008    7.225739    5.867969   -4.022960
  42 H     1.0000    0     1.008    9.878538    3.856479   -4.168238
  43 H     1.0000    0     1.008    8.211638    6.855781    0.465424
  44 H     1.0000    0     1.008   10.873735    4.834798    0.321962
  45 H     1.0000    0     1.008   10.329311    0.198035    0.114636
  46 H     1.0000    0     1.008    4.020935   -5.759550   -1.399153
  47 H     1.0000    0     1.008   -3.715532   -6.287981   -1.958755
  48 H     1.0000    0     1.008  -11.519955    1.235482    0.215766
  49 H     1.0000    0     1.008   -3.550880    2.316974   -0.929207
  50 H     1.0000    0     1.008   -9.404520   -1.348659    3.516754
  51 H     1.0000    0     1.008   -8.429220   -5.782572    4.593623
  52 H     1.0000    0     1.008    0.570477   -1.718798    4.753025
  53 H     1.0000    0     1.008    3.869014    5.087651    0.350005
* core charge reduced due to ECP

--------------------------------
INTERNAL COORDINATES (ANGSTROEM)
--------------------------------
 C      0   0   0     0.000000000000     0.00000000     0.00000000
 C      1   0   0     1.522552451635     0.00000000     0.00000000
 C      2   1   0     1.535647924299   111.39943221     0.00000000
 C      3   2   1     1.496575514899   110.41541308   179.91875765
 C      4   3   2     1.389511650819   120.72862552    89.27136861
 C      5   4   3     1.380415526929   120.12734731   182.63541119
 F      6   5   4     1.345216034410   118.44718440   180.60480397
 C      6   5   4     1.393879688476   122.76975757   359.30080531
 C      8   6   5     1.470711324766   123.03880446   179.71346693
 C      9   8   6     1.391338139330   120.51851454   311.57651396
 C     10   9   8     1.381443220116   119.47812672   184.75042852
 F     11  10   9     1.338237486688   118.64698512   176.18059673
 C     11  10   9     1.392944091082   122.34949458     0.40767388
 C     13  11  10     1.505492108418   121.22713752   175.64939826
 O     14  13  11     1.192340791727   123.99791230    60.54020587
 O     14  13  11     1.352980925709   115.57048788   239.54439380
 C     16  14  13     1.376930183693   121.35712675     6.26932065
 C     17  16  14     1.389798669975   121.30793572    54.31458853
 C     18  17  16     1.380500208638   118.81720093   183.93008732
 F     19  18  17     1.345687660709   117.65324199   178.96904754
 C     19  18  17     1.393426045527   122.48606938   358.34752932
 C     21  19  18     1.471128348904   121.54545765   177.07493062
 C     22  21  19     1.391737506232   120.33250879   135.34610775
 C     23  22  21     1.381541743538   119.94188489   179.45361800
 F     24  23  22     1.339961595397   119.38024159   179.64293705
 C     24  23  22     1.391037009912   121.16506854   359.53357242
 F     26  24  23     1.338222755248   120.82971523   180.28556230
 C     26  24  23     1.390973830909   118.27163404     0.11282526
 F     28  26  24     1.339968341656   119.35990844   180.64178672
 C     28  26  24     1.381257163796   121.25257575     0.26873876
 C     21  19  18     1.393667080238   117.14359195   357.90178706
 C     31  21  19     1.380596685002   121.53370614     3.33551437
 C     13  11  10     1.392485299524   116.53239078   356.53829196
 F     33  13  11     1.344315882858   118.90768193   182.70082863
 C     33  13  11     1.378443181616   122.52674423     3.63858543
 C      8   6   5     1.394736362512   115.50959731     0.78161994
 F     36   8   6     1.349441821362   118.62662185   178.17557247
 C     36   8   6     1.378876772730   123.04782076   359.91435546
 H      1   2   3     1.087666910168   110.64738996    59.99565381
 H      1   2   3     1.086978068444   110.36536422   179.96346512
 H      1   2   3     1.087568021030   110.61378811   299.88946561
 H      2   1   3     1.091675193628   109.70393238   120.91202261
 H      2   1   3     1.091835784354   109.71805311   239.06754211
 H      3   2   1     1.090958233248   108.96405665    59.06810104
 H      3   2   1     1.090975121120   109.02971665   300.86387999
 H      5   4   3     1.078587397026   120.93485445     2.72032231
 H     10   9   8     1.078034242660   121.34719779     2.97981772
 H     18  17  16     1.078711590884   121.63788217     3.74604188
 H     23  22  21     1.078130190327   121.12292328   358.17128281
 H     30  28  26     1.077667035816   118.80815632   180.92998743
 H     31  21  19     1.078547399704   118.90666734   180.44975597
 H     32  31  21     1.077537755166   121.14857483   177.22788424
 H     35  33  13     1.077902825853   119.14822103   178.77303905
 H     38  36   8     1.078617562956   119.07383685   179.26716642

---------------------------
INTERNAL COORDINATES (A.U.)
---------------------------
 C      0   0   0     0.000000000000     0.00000000     0.00000000
 C      1   0   0     2.877207158121     0.00000000     0.00000000
 C      2   1   0     2.901954015050   111.39943221     0.00000000
 C      3   2   1     2.828117861892   110.41541308   179.91875765
 C      4   3   2     2.625796479941   120.72862552    89.27136861
 C      5   4   3     2.608607296909   120.12734731   182.63541119
 F      6   5   4     2.542089895995   118.44718440   180.60480397
 C      6   5   4     2.634050874856   122.76975757   359.30080531
 C      8   6   5     2.779241625864   123.03880446   179.71346693
 C      9   8   6     2.629248043013   120.51851454   311.57651396
 C     10   9   8     2.610549355581   119.47812672   184.75042852
 F     11  10   9     2.528902351988   118.64698512   176.18059673
 C     11  10   9     2.632282852009   122.34949458     0.40767388
 C     13  11  10     2.844967781691   121.22713752   175.64939826
 O     14  13  11     2.253197554668   123.99791230    60.54020587
 O     14  13  11     2.556763414009   115.57048788   239.54439380
 C     16  14  13     2.602020952711   121.35712675     6.26932065
 C     17  16  14     2.626338867540   121.30793572    54.31458853
 C     18  17  16     2.608767322148   118.81720093   183.93008732
 F     19  18  17     2.542981140537   117.65324199   178.96904754
 C     19  18  17     2.633193613919   122.48606938   358.34752932
 C     21  19  18     2.780029687276   121.54545765   177.07493062
 C     22  21  19     2.630002737085   120.33250879   135.34610775
 C     23  22  21     2.610735537867   119.94188489   179.45361800
 F     24  23  22     2.532160445273   119.38024159   179.64293705
 C     24  23  22     2.628678990882   121.16506854   359.53357242
 F     26  24  23     2.528874513600   120.82971523   180.28556230
 C     26  24  23     2.628559599870   118.27163404     0.11282526
 F     28  26  24     2.532173193855   119.35990844   180.64178672
 C     28  26  24     2.610197760091   121.25257575     0.26873876
 C     21  19  18     2.633649103511   117.14359195   357.90178706
 C     31  21  19     2.608949636054   121.53370614     3.33551437
 C     13  11  10     2.631415861611   116.53239078   356.53829196
 F     33  13  11     2.540388856082   118.90768193   182.70082863
 C     33  13  11     2.604880104426   122.52674423     3.63858543
 C      8   6   5     2.635669754169   115.50959731     0.78161994
 F     36   8   6     2.550075476034   118.62662185   178.17557247
 C     36   8   6     2.605699472885   123.04782076   359.91435546
 H      1   2   3     2.055392585146   110.64738996    59.99565381
 H      1   2   3     2.054090862937   110.36536422   179.96346512
 H      1   2   3     2.055205711758   110.61378811   299.88946561
 H      2   1   3     2.062967143153   109.70393238   120.91202261
 H      2   1   3     2.063270615643   109.71805311   239.06754211
 H      3   2   1     2.061612284386   108.96405665    59.06810104
 H      3   2   1     2.061644197838   109.02971665   300.86387999
 H      5   4   3     2.038234791878   120.93485445     2.72032231
 H     10   9   8     2.037189481617   121.34719779     2.97981772
 H     18  17  16     2.038469484257   121.63788217     3.74604188
 H     23  22  21     2.037370796430   121.12292328   358.17128281
 H     30  28  26     2.036495561247   118.80815632   180.92998743
 H     31  21  19     2.038159207893   118.90666734   180.44975597
 H     32  31  21     2.036251256224   121.14857483   177.22788424
 H     35  33  13     2.036941139842   119.14822103   178.77303905
 H     38  36   8     2.038291797225   119.07383685   179.26716642

---------------------
BASIS SET INFORMATION
---------------------
There are 4 groups of distinct atoms

 Group   1 Type C   : 6s6p2d contracted to 2s2p1d pattern {42/42/2}
 Group   2 Type F   : 6s6p2d contracted to 2s2p1d pattern {42/42/2}
 Group   3 Type O   : 6s6p2d contracted to 2s2p1d pattern {42/42/2}
 Group   4 Type H   : 8s2p contracted to 2s1p pattern {53/2}

Atom   0C    basis set group =>   1
Atom   1C    basis set group =>   1
Atom   2C    basis set group =>   1
Atom   3C    basis set group =>   1
Atom   4C    basis set group =>   1
Atom   5C    basis set group =>   1
Atom   6F    basis set group =>   2
Atom   7C    basis set group =>   1
Atom   8C    basis set group =>   1
Atom   9C    basis set group =>   1
Atom  10C    basis set group =>   1
Atom  11F    basis set group =>   2
Atom  12C    basis set group =>   1
Atom  13C    basis set group =>   1
Atom  14O    basis set group =>   3
Atom  15O    basis set group =>   3
Atom  16C    basis set group =>   1
Atom  17C    basis set group =>   1
Atom  18C    basis set group =>   1
Atom  19F    basis set group =>   2
Atom  20C    basis set group =>   1
Atom  21C    basis set group =>   1
Atom  22C    basis set group =>   1
Atom  23C    basis set group =>   1
Atom  24F    basis set group =>   2
Atom  25C    basis set group =>   1
Atom  26F    basis set group =>   2
Atom  27C    basis set group =>   1
Atom  28F    basis set group =>   2
Atom  29C    basis set group =>   1
Atom  30C    basis set group =>   1
Atom  31C    basis set group =>   1
Atom  32C    basis set group =>   1
Atom  33F    basis set group =>   2
Atom  34C    basis set group =>   1
Atom  35C    basis set group =>   1
Atom  36F    basis set group =>   2
Atom  37C    basis set group =>   1
Atom  38H    basis set group =>   4
Atom  39H    basis set group =>   4
Atom  40H    basis set group =>   4
Atom  41H    basis set group =>   4
Atom  42H    basis set group =>   4
Atom  43H    basis set group =>   4
Atom  44H    basis set group =>   4
Atom  45H    basis set group =>   4
Atom  46H    basis set group =>   4
Atom  47H    basis set group =>   4
Atom  48H    basis set group =>   4
Atom  49H    basis set group =>   4
Atom  50H    basis set group =>   4
Atom  51H    basis set group =>   4
Atom  52H    basis set group =>   4
Atom  53H    basis set group =>   4
---------------------------------
AUXILIARY/J BASIS SET INFORMATION
---------------------------------
There are 4 groups of distinct atoms

 Group   1 Type C   : 12s5p4d2f1g contracted to 6s4p3d1f1g pattern {711111/2111/211/2/1}
 Group   2 Type F   : 12s5p4d2f1g contracted to 6s4p3d1f1g pattern {711111/2111/211/2/1}
 Group   3 Type O   : 12s5p4d2f1g contracted to 6s4p3d1f1g pattern {711111/2111/211/2/1}
 Group   4 Type H   : 5s2p1d contracted to 3s1p1d pattern {311/2/1}

Atom   0C    basis set group =>   1
Atom   1C    basis set group =>   1
Atom   2C    basis set group =>   1
Atom   3C    basis set group =>   1
Atom   4C    basis set group =>   1
Atom   5C    basis set group =>   1
Atom   6F    basis set group =>   2
Atom   7C    basis set group =>   1
Atom   8C    basis set group =>   1
Atom   9C    basis set group =>   1
Atom  10C    basis set group =>   1
Atom  11F    basis set group =>   2
Atom  12C    basis set group =>   1
Atom  13C    basis set group =>   1
Atom  14O    basis set group =>   3
Atom  15O    basis set group =>   3
Atom  16C    basis set group =>   1
Atom  17C    basis set group =>   1
Atom  18C    basis set group =>   1
Atom  19F    basis set group =>   2
Atom  20C    basis set group =>   1
Atom  21C    basis set group =>   1
Atom  22C    basis set group =>   1
Atom  23C    basis set group =>   1
Atom  24F    basis set group =>   2
Atom  25C    basis set group =>   1
Atom  26F    basis set group =>   2
Atom  27C    basis set group =>   1
Atom  28F    basis set group =>   2
Atom  29C    basis set group =>   1
Atom  30C    basis set group =>   1
Atom  31C    basis set group =>   1
Atom  32C    basis set group =>   1
Atom  33F    basis set group =>   2
Atom  34C    basis set group =>   1
Atom  35C    basis set group =>   1
Atom  36F    basis set group =>   2
Atom  37C    basis set group =>   1
Atom  38H    basis set group =>   4
Atom  39H    basis set group =>   4
Atom  40H    basis set group =>   4
Atom  41H    basis set group =>   4
Atom  42H    basis set group =>   4
Atom  43H    basis set group =>   4
Atom  44H    basis set group =>   4
Atom  45H    basis set group =>   4
Atom  46H    basis set group =>   4
Atom  47H    basis set group =>   4
Atom  48H    basis set group =>   4
Atom  49H    basis set group =>   4
Atom  50H    basis set group =>   4
Atom  51H    basis set group =>   4
Atom  52H    basis set group =>   4
Atom  53H    basis set group =>   4
-------------------------
ECP PARAMETER INFORMATION
-------------------------

 Group 1, Type C  ECP vDZP-ECP (replacing 2 core electrons, lmax=3)
 Group 2, Type F  ECP vDZP-ECP (replacing 2 core electrons, lmax=3)
 Group 3, Type O  ECP vDZP-ECP (replacing 2 core electrons, lmax=3)

Atom   0C    ECP group =>   1
Atom   1C    ECP group =>   1
Atom   2C    ECP group =>   1
Atom   3C    ECP group =>   1
Atom   4C    ECP group =>   1
Atom   5C    ECP group =>   1
Atom   6F    ECP group =>   2
Atom   7C    ECP group =>   1
Atom   8C    ECP group =>   1
Atom   9C    ECP group =>   1
Atom  10C    ECP group =>   1
Atom  11F    ECP group =>   2
Atom  12C    ECP group =>   1
Atom  13C    ECP group =>   1
Atom  14O    ECP group =>   3
Atom  15O    ECP group =>   3
Atom  16C    ECP group =>   1
Atom  17C    ECP group =>   1
Atom  18C    ECP group =>   1
Atom  19F    ECP group =>   2
Atom  20C    ECP group =>   1
Atom  21C    ECP group =>   1
Atom  22C    ECP group =>   1
Atom  23C    ECP group =>   1
Atom  24F    ECP group =>   2
Atom  25C    ECP group =>   1
Atom  26F    ECP group =>   2
Atom  27C    ECP group =>   1
Atom  28F    ECP group =>   2
Atom  29C    ECP group =>   1
Atom  30C    ECP group =>   1
Atom  31C    ECP group =>   1
Atom  32C    ECP group =>   1
Atom  33F    ECP group =>   2
Atom  34C    ECP group =>   1
Atom  35C    ECP group =>   1
Atom  36F    ECP group =>   2
Atom  37C    ECP group =>   1



           ************************************************************
           *        Program running with 4 parallel MPI-processes     *
           *              working on a common directory               *
           ************************************************************
------------------------------------------------------------------------------
                             ORCA STARTUP CALCULATIONS
                           -- RI-GTO INTEGRALS CHOSEN --
------------------------------------------------------------------------------
------------------------------------------------------------------------------
                   ___                                                        
                  /   \      - P O W E R E D   B Y -                         
                 /     \                                                     
                 |  |  |   _    _      __       _____    __    __             
                 |  |  |  | |  | |    /  \     |  _  \  |  |  /  |          
                  \  \/   | |  | |   /    \    | | | |  |  | /  /          
                 / \  \   | |__| |  /  /\  \   | |_| |  |  |/  /          
                |  |  |   |  __  | /  /__\  \  |    /   |      \           
                |  |  |   | |  | | |   __   |  |    \   |  |\   \          
                \     /   | |  | | |  |  |  |  | |\  \  |  | \   \       
                 \___/    |_|  |_| |__|  |__|  |_| \__\ |__|  \__/        
                                                                              
                      - O R C A' S   B I G   F R I E N D -                    
                                      &                                       
                       - I N T E G R A L  F E E D E R -                       
                                                                              
 v1 FN, 2020, v2 2021, v3 2022-2024                                           
------------------------------------------------------------------------------


----------------------
SHARK INTEGRAL PACKAGE
----------------------

Number of atoms                             ...     54
Number of basis functions                   ...    574
Number of shells                            ...    238
Maximum angular momentum                    ...      2
Integral batch strategy                     ... SHARK/LIBINT Hybrid
RI-J (if used) integral strategy            ... SPLIT-RIJ (Revised 2003 algorithm where possible)
Printlevel                                  ...      1
Contraction scheme used                     ... SEGMENTED contraction
Prescreening option                         ... SCHWARTZ
   Thresh                                   ... 1.000e-10
   Tcut                                     ... 1.000e-11
   Tpresel                                  ... 1.000e-11 
Coulomb Range Separation                    ... NOT USED
Exchange Range Separation                   ... Long Range
   Mu parameter                             ... 3.000e-01
   Scaling (regular/separated)              ... 1.670e-01 8.330e-01
Robust (split-)RI terms used:
  metric    (central integrals)             ... YES
  density   (r.h.s.  integrals)             ... YES
  potential (l.h.s.  integrals)             ... YES
Multipole approximations                    ... NOT USED
Finite Nucleus Model                        ... NOT USED
CABS basis                                  ... NOT available
Auxiliary Coulomb fitting basis             ... AVAILABLE
   # of basis functions in Aux-J            ...   2038
   # of shells in Aux-J                     ...    650
   Maximum angular momentum in Aux-J        ...      4
Auxiliary J/K fitting basis                 ... NOT available
Auxiliary Correlation fitting basis         ... NOT available
Auxiliary 'external' fitting basis          ... NOT available

done (  0.0 sec) Dimension = 238
   => SHARK Basis and OBASIS are compatible. Storing Pre-screening
Shell pair information
Shell pair cut-off parameter TPreSel        ...   1.0e-11
Total number of shell pairs                 ...     28441
Shell pairs after pre-screening             ...     23505
Total number of primitive shell pairs       ...    240572
Primitive shell pairs kept                  ...    126457
          la=0 lb=0:   5061 shell pairs
          la=1 lb=0:   8345 shell pairs
          la=1 lb=1:   3525 shell pairs
          la=2 lb=0:   3332 shell pairs
          la=2 lb=1:   2694 shell pairs
          la=2 lb=2:    548 shell pairs

Checking whether 4 symmetric matrices of dimension 574 fit in memory
:Max Core in MB      =   4000.00
 MB in use           =     45.27
 MB left             =   3954.73
 MB needed           =      5.04
 Data fit in memory  = YES
done (  0.3 sec)
Calculating Nuclear repulsion               ... done (  0.0 sec) ENN=   2154.967068135683 Eh

Diagonalization of the overlap matrix:
Smallest eigenvalue                        ... 2.264e-04
Time for diagonalization                   ...    0.042 sec
Threshold for overlap eigenvalues          ... 1.000e-07
Number of eigenvalues below threshold      ... 0
Time for construction of square roots      ...    0.027 sec
Total time needed                          ...    0.078 sec

-------------------
DFT GRID GENERATION
-------------------

General Integration Accuracy     IntAcc      ... 4.388
Radial Grid Type                 RadialGrid  ... OptM3 with GC (2021)
Angular Grid (max. ang.)         AngularGrid ... 4 (Lebedev-302)
Angular grid pruning method      GridPruning ... 4 (adaptive)
Weight generation scheme         WeightScheme... mBecke (2022)
Basis function cutoff            BFCut       ... 1.0000e-10
Integration weight cutoff        WCut        ... 1.0000e-14
Partially contracted basis set               ... off
Rotationally invariant grid construction     ... off
Angular grids for H and He will be reduced by one unit

Total number of grid points                  ...   277999
Total number of batches                      ...     4370
Average number of points per batch           ...       63
Average number of grid points per atom       ...     5148

--------------------
COSX GRID GENERATION
--------------------

GRIDX 1
-------
General Integration Accuracy     IntAcc      ... 3.816
Radial Grid Type                 RadialGrid  ... OptM3 with GC (2021)
Angular Grid (max. ang.)         AngularGrid ... 1 (Lebedev-50)
Angular grid pruning method      GridPruning ... 4 (adaptive)
Weight generation scheme         WeightScheme... mBecke (2022)
Basis function cutoff            BFCut       ... 1.0000e-10
Integration weight cutoff        WCut        ... 1.0000e-14
Partially contracted basis set               ... on
Rotationally invariant grid construction     ... off
Angular grids for H and He will be reduced by one unit

Total number of grid points                  ...    35117
Total number of batches                      ...      304
Average number of points per batch           ...      115
Average number of grid points per atom       ...      650
UseSFitting                                  ... on

GRIDX 2
-------
General Integration Accuracy     IntAcc      ... 4.020
Radial Grid Type                 RadialGrid  ... OptM3 with GC (2021)
Angular Grid (max. ang.)         AngularGrid ... 2 (Lebedev-110)
Angular grid pruning method      GridPruning ... 4 (adaptive)
Weight generation scheme         WeightScheme... mBecke (2022)
Basis function cutoff            BFCut       ... 1.0000e-10
Integration weight cutoff        WCut        ... 1.0000e-14
Partially contracted basis set               ... on
Rotationally invariant grid construction     ... off
Angular grids for H and He will be reduced by one unit

Total number of grid points                  ...    78255
Total number of batches                      ...      637
Average number of points per batch           ...      122
Average number of grid points per atom       ...     1449
UseSFitting                                  ... on

GRIDX 3
-------
General Integration Accuracy     IntAcc      ... 4.338
Radial Grid Type                 RadialGrid  ... OptM3 with GC (2021)
Angular Grid (max. ang.)         AngularGrid ... 3 (Lebedev-194)
Angular grid pruning method      GridPruning ... 4 (adaptive)
Weight generation scheme         WeightScheme... mBecke (2022)
Basis function cutoff            BFCut       ... 1.0000e-10
Integration weight cutoff        WCut        ... 1.0000e-14
Partially contracted basis set               ... on
Rotationally invariant grid construction     ... off
Angular grids for H and He will be reduced by one unit

Total number of grid points                  ...   171674
Total number of batches                      ...     1363
Average number of points per batch           ...      125
Average number of grid points per atom       ...     3179
UseSFitting                                  ... on
Grids setup in   5.0 sec
Initializing property integral containers    ... done (  0.0 sec)

SHARK setup successfully completed in   7.8 seconds

Maximum memory used throughout the entire STARTUP-calculation: 112.4 MB


           ************************************************************
           *        Program running with 4 parallel MPI-processes     *
           *              working on a common directory               *
           ************************************************************
-------------------------------------------------------------------------------
                                 ORCA GUESS
                   Start orbitals & Density for SCF / CASSCF
-------------------------------------------------------------------------------

------------
SCF SETTINGS
------------
Hamiltonian:
 Density Functional     Method          .... DFT(GTOs)
 Exchange Functional    Exchange        .... WB97X-V
 Correlation Functional Correlation     .... WB97X-V
 Gradients option       PostSCFGGA      .... off
 Hybrid DFT is turned on
   Fraction HF Exchange ScalHFX         ....  0.167000
   Scaling of DF-GGA-X  ScalDFX         ....  0.000000
   Scaling of DF-GGA-C  ScalDFC         ....  1.000000
   Scaling of DF-LDA-C  ScalLDAC        ....  1.000000
   Perturbative correction              ....  0.000000
 Long-range corrected/Screened/Range-Separated Hybrid DFT is turned on
   Amount of maximum screened exact exchange              ....  0.833000
   Range separation parameter mu (erf(mu*r12)/r12)        ....  0.300000
   NL short-range parameter             ....  6.000000
   NL long-range parameter              ....  0.010000
 RI-approximation to the Coulomb term is turned on
   Number of AuxJ basis functions       .... 2038
   RIJ-COSX (HFX calculated with COS-X)).... on


General Settings:
 Integral files         IntName         .... conf_031
 Hartree-Fock type      HFTyp           .... RHF
 Total Charge           Charge          ....    0
 Multiplicity           Mult            ....    1
 Number of Electrons    NEL             ....  196
 Basis Dimension        Dim             ....  574
 Nuclear Repulsion      ENuc            ....   2154.9670681357 Eh

Convergence Acceleration:
 AO-DIIS                CNVDIIS         .... on
   Start iteration      DIISMaxIt       ....    12
   Startup error        DIISStart       ....  0.200000
   # of expansion vecs  DIISMaxEq       ....     5
   Bias factor          DIISBfac        ....   1.050
   Max. coefficient     DIISMaxC        ....  10.000
 MO-DIIS                CNVKDIIS        .... off
 Trust-Rad. Augm. Hess. CNVTRAH         .... auto
   Auto Start mean grad. ratio tolernc. ....  1.125000
   Auto Start start iteration           ....    50
   Auto Start num. interpolation iter.  ....    10
   Max. Number of Micro iterations      ....    24
   Max. Number of Macro iterations      .... Maxiter - #DIIS iter
   Number of Davidson start vectors     ....     2
   Converg. threshold    (grad. norm)   ....   5.000e-05
   Grad. Scal. Fac. for Micro threshold ....   0.100
   Minimum threshold for Micro iter.    ....   1.000e-02
   NR start threshold (gradient norm)   ....   1.000e-04
   Initial trust radius                 ....   0.400
   Minimum AH scaling param. (alpha)    ....   1.000
   Maximum AH scaling param. (alpha)    .... 1000.000
   Quad. conv. algorithm                .... NR
   White noise on init. David. guess    .... on
   Maximum white noise                  ....   0.010
   Pseudo random numbers                .... off
   Inactive MOs                         .... canonical
   Orbital update algorithm             .... Taylor
   Preconditioner                       .... Diag
   Full preconditioner red. dimension   ....   250
 SOSCF                 CNVSOSCF           .... on
   Start iteration     SOSCFMaxIt         ....   150
   Startup grad/error  SOSCFStart         ....  0.003300
   Hessian update      SOSCFHessUp        .... L-BFGS
   Autom. constraints  SOSCFAutoConstrain .... off
 Level Shifting         CNVShift        .... on
   Level shift para.    LevelShift      ....    0.2500
   Turn off err/grad.   ShiftErr        ....    0.0010
 Zerner damping         CNVZerner       .... off
 Static damping         CNVDamp         .... on
   Fraction old density DampFac         ....    0.7000
   Max. Damping (<1)    DampMax         ....    0.9800
   Min. Damping (>=0)   DampMin         ....    0.0000
   Turn off err/grad.   DampErr         ....    0.1000

SCF Procedure:
 Maximum # iterations   MaxIter         ....   125
 SCF integral mode      SCFMode         .... Direct
   Integral package                     .... SHARK and LIBINT hybrid scheme
 Reset frequency        DirectResetFreq ....    20
 Integral Threshold     Thresh          ....  1.000e-10 Eh
 Primitive CutOff       TCut            ....  1.000e-11 Eh

Convergence Tolerance:
 Convergence Check Mode ConvCheckMode   .... Total+1el-Energy
 Convergence forced     ConvForced      .... 0
 Energy Change          TolE            ....  1.000e-06 Eh
 1-El. energy change                    ....  1.000e-03 Eh
 Orbital Gradient       TolG            ....  5.000e-05
 Orbital Rotation angle TolX            ....  5.000e-05
 DIIS Error             TolErr          ....  1.000e-06

------------------------------
INITIAL GUESS: MODEL POTENTIAL
------------------------------
Loading Hartree-Fock densities                     ... done
Atomic calculation to generate a density for atom 0 (C  with ECP)
  Multiplicity assumed   :    1
  Atomic configuration   : 1s2 2s2 2p2 
  Number of open shells  : 1
  Command: /opt/apps/pkg/applications/orca/orca_6_1_0_linux_x86-64_shared_openmpi418/orca conf_031_atom6.inp "" > conf_031_atom6.out
Returned from the atomic calculation with res=0
Atomic calculation to generate a density for atom 6 (F  with ECP)
  Multiplicity assumed   :    2
  Atomic configuration   : 1s2 2s2 2p5 
  Number of open shells  : 1
  Command: /opt/apps/pkg/applications/orca/orca_6_1_0_linux_x86-64_shared_openmpi418/orca conf_031_atom9.inp "" > conf_031_atom9.out
Returned from the atomic calculation with res=0
Atomic calculation to generate a density for atom 14 (O  with ECP)
  Multiplicity assumed   :    3
  Atomic configuration   : 1s2 2s2 2p4 
  Number of open shells  : 1
  Command: /opt/apps/pkg/applications/orca/orca_6_1_0_linux_x86-64_shared_openmpi418/orca conf_031_atom8.inp "" > conf_031_atom8.out
Returned from the atomic calculation with res=0
Calculating cut-offs                               ... done
Initializing the effective Hamiltonian             ... done
Setting up the integral package (SHARK)            ... done
done (   1.6 sec)
done (   0.7 sec)
Mapping shells                                     ... done
Starting the XC term evaluation                    ... done (   0.5 sec)
  promolecular density results
     # of electrons  =    271.983723081
     EX              =   -168.151387444
     EC              =    -11.749052121
     EX+EC           =   -179.900439564
Transforming the Hamiltonian                       ... done (   0.0 sec)
done (   0.0 sec)
Back transforming the eigenvectors                 ... done (   0.0 sec)
done
                      ------------------
                      INITIAL GUESS DONE (   4.0 sec)
                      ------------------
             **** ENERGY FILE WAS UPDATED (conf_031.en.tmp) ****
Finished Guess after   5.7 sec
Maximum memory used throughout the entire GUESS-calculation: 67.5 MB


           ************************************************************
           *        Program running with 4 parallel MPI-processes     *
           *              working on a common directory               *
           ************************************************************

-------------------------------------------------------------------------------------------
                                      ORCA LEAN-SCF
                              memory conserving SCF solver
-------------------------------------------------------------------------------------------

----------------------------------------D-I-I-S--------------------------------------------
Iteration    Energy (Eh)           Delta-E    RMSDP     MaxDP     DIISErr   Damp  Time(sec)
-------------------------------------------------------------------------------------------
               ***  Starting incremental Fock matrix formation  ***
    1    -394.3617852650336317     0.00e+00  5.90e-03  9.67e-02  2.35e-01  0.700  67.2
    2    -394.9336918084209174    -5.72e-01  4.27e-03  6.83e-02  1.15e-01  0.700  26.1
                               ***Turning on AO-DIIS***
    3    -395.1992025368595023    -2.66e-01  2.48e-03  3.47e-02  5.89e-02  0.700  25.6
    4    -395.3568562882555852    -1.58e-01  5.46e-03  7.39e-02  3.44e-02  0.000  24.0
    5    -395.7003788461970544    -3.44e-01  4.56e-04  6.48e-03  7.20e-03  0.000  26.2
    6    -395.7021865034803341    -1.81e-03  2.35e-04  5.39e-03  4.08e-03  0.000  21.3
                              *** Initializing SOSCF ***
---------------------------------------S-O-S-C-F--------------------------------------
Iteration    Energy (Eh)           Delta-E    RMSDP     MaxDP     MaxGrad    Time(sec)
--------------------------------------------------------------------------------------
    7    -395.7026937609839479    -5.07e-04  1.25e-04  3.57e-03  3.03e-03    20.1
               *** Restarting incremental Fock matrix formation ***
    8    -395.7029994907111359    -3.06e-04  8.03e-05  1.86e-03  9.93e-04    63.9
    9    -395.7030478100177788    -4.83e-05  9.26e-05  2.67e-03  4.75e-04    39.3
   10    -395.7030610184115176    -1.32e-05  2.99e-05  1.40e-03  3.16e-04    39.1
   11    -395.7030659699635180    -4.95e-06  1.10e-05  2.80e-04  4.51e-05    34.0
   12    -395.7030660759310194    -1.06e-07  5.07e-06  9.45e-05  4.16e-05    27.1
                 **** Energy Check signals convergence ****

               *****************************************************
               *                     SUCCESS                       *
               *           SCF CONVERGED AFTER  12 CYCLES          *
               *****************************************************

 done (  118.103 sec)
Old exchange energy                            :    -40.323589929 Eh
New exchange energy                            :    -40.323616815 Eh
Exchange energy change after final integration :     -0.000026886 Eh
Total energy after final integration           :   -395.703093346 Eh
             **** ENERGY FILE WAS UPDATED (conf_031.en.tmp) ****

----------------
TOTAL SCF ENERGY
----------------

Total Energy       :       -395.70309334645424 Eh          -10767.62859 eV

Components:
Nuclear Repulsion  :       2154.96706813568289 Eh           58639.63511 eV
Electronic Energy  :      -2550.67013459589180 Eh          -69407.26296 eV
One Electron Energy:      -4925.30360083913911 Eh         -134024.32464 eV
Two Electron Energy:       2374.63346624324731 Eh           64617.06168 eV

Virial components:
Potential Energy   :       -709.33689778904863 Eh          -19302.03829 eV
Kinetic Energy     :        313.63380444259434 Eh            8534.40970 eV
Virial Ratio       :          2.26167233168541

DFT components:
N(Alpha)           :       98.000000807287 electrons
N(Beta)            :       98.000000807287 electrons
N(Total)           :      196.000001614575 electrons
E(X)               :      -51.259847407194 Eh       
E(C)               :       -7.931425533655 Eh       
E(XC)              :      -59.191272940849 Eh       

---------------
SCF CONVERGENCE
---------------

  Last Energy change         ...    1.0597e-07  Tolerance :   1.0000e-06
  Last MAX-Density change    ...    9.4457e-05  Tolerance :   1.0000e-05
  Last RMS-Density change    ...    5.0659e-06  Tolerance :   1.0000e-06
  Last DIIS Error            ...    3.0346e-03  Tolerance :   1.0000e-06
  Last Orbital Gradient      ...    4.1575e-05  Tolerance :   5.0000e-05
  Last Orbital Rotation      ...    1.5836e-04  Tolerance :   5.0000e-05


----------------
ORBITAL ENERGIES
----------------

  NO   OCC          E(Eh)            E(eV) 
   0   2.0000      -1.392054       -37.8797 
   1   2.0000      -1.387668       -37.7604 
   2   2.0000      -1.385567       -37.7032 
   3   2.0000      -1.383717       -37.6529 
   4   2.0000      -1.381387       -37.5895 
   5   2.0000      -1.381034       -37.5798 
   6   2.0000      -1.377511       -37.4840 
   7   2.0000      -1.371703       -37.3259 
   8   2.0000      -1.275281       -34.7022 
   9   2.0000      -1.186710       -32.2920 
  10   2.0000      -1.063643       -28.9432 
  11   2.0000      -1.057713       -28.7818 
  12   2.0000      -1.044466       -28.4214 
  13   2.0000      -1.034860       -28.1600 
  14   2.0000      -0.986469       -26.8432 
  15   2.0000      -0.961045       -26.1514 
  16   2.0000      -0.954528       -25.9740 
  17   2.0000      -0.927329       -25.2339 
  18   2.0000      -0.926503       -25.2114 
  19   2.0000      -0.922539       -25.1036 
  20   2.0000      -0.919674       -25.0256 
  21   2.0000      -0.915645       -24.9160 
  22   2.0000      -0.903346       -24.5813 
  23   2.0000      -0.857800       -23.3419 
  24   2.0000      -0.830214       -22.5913 
  25   2.0000      -0.807496       -21.9731 
  26   2.0000      -0.801193       -21.8016 
  27   2.0000      -0.798628       -21.7318 
  28   2.0000      -0.785052       -21.3623 
  29   2.0000      -0.782367       -21.2893 
  30   2.0000      -0.771677       -20.9984 
  31   2.0000      -0.765291       -20.8246 
  32   2.0000      -0.743589       -20.2341 
  33   2.0000      -0.738133       -20.0856 
  34   2.0000      -0.723335       -19.6830 
  35   2.0000      -0.715084       -19.4584 
  36   2.0000      -0.704602       -19.1732 
  37   2.0000      -0.694862       -18.9082 
  38   2.0000      -0.692242       -18.8369 
  39   2.0000      -0.690080       -18.7780 
  40   2.0000      -0.684542       -18.6273 
  41   2.0000      -0.674507       -18.3543 
  42   2.0000      -0.668799       -18.1990 
  43   2.0000      -0.649060       -17.6618 
  44   2.0000      -0.647288       -17.6136 
  45   2.0000      -0.645042       -17.5525 
  46   2.0000      -0.643637       -17.5143 
  47   2.0000      -0.642954       -17.4957 
  48   2.0000      -0.639379       -17.3984 
  49   2.0000      -0.635732       -17.2992 
  50   2.0000      -0.631181       -17.1753 
  51   2.0000      -0.621945       -16.9240 
  52   2.0000      -0.618682       -16.8352 
  53   2.0000      -0.618030       -16.8175 
  54   2.0000      -0.614033       -16.7087 
  55   2.0000      -0.610738       -16.6190 
  56   2.0000      -0.605242       -16.4695 
  57   2.0000      -0.602201       -16.3867 
  58   2.0000      -0.598227       -16.2786 
  59   2.0000      -0.595528       -16.2051 
  60   2.0000      -0.593064       -16.1381 
  61   2.0000      -0.590709       -16.0740 
  62   2.0000      -0.588519       -16.0144 
  63   2.0000      -0.582768       -15.8579 
  64   2.0000      -0.579604       -15.7718 
  65   2.0000      -0.571937       -15.5632 
  66   2.0000      -0.561055       -15.2671 
  67   2.0000      -0.555718       -15.1218 
  68   2.0000      -0.551418       -15.0048 
  69   2.0000      -0.545490       -14.8435 
  70   2.0000      -0.540378       -14.7044 
  71   2.0000      -0.538740       -14.6599 
  72   2.0000      -0.537280       -14.6201 
  73   2.0000      -0.531683       -14.4678 
  74   2.0000      -0.522986       -14.2312 
  75   2.0000      -0.519576       -14.1384 
  76   2.0000      -0.516446       -14.0532 
  77   2.0000      -0.508282       -13.8311 
  78   2.0000      -0.506609       -13.7855 
  79   2.0000      -0.504601       -13.7309 
  80   2.0000      -0.503294       -13.6953 
  81   2.0000      -0.502282       -13.6678 
  82   2.0000      -0.492993       -13.4150 
  83   2.0000      -0.490988       -13.3605 
  84   2.0000      -0.485771       -13.2185 
  85   2.0000      -0.468762       -12.7557 
  86   2.0000      -0.462493       -12.5851 
  87   2.0000      -0.458973       -12.4893 
  88   2.0000      -0.456766       -12.4292 
  89   2.0000      -0.426116       -11.5952 
  90   2.0000      -0.406805       -11.0697 
  91   2.0000      -0.390378       -10.6227 
  92   2.0000      -0.378976       -10.3125 
  93   2.0000      -0.372717       -10.1421 
  94   2.0000      -0.372003       -10.1227 
  95   2.0000      -0.371718       -10.1150 
  96   2.0000      -0.353535        -9.6202 
  97   2.0000      -0.342113        -9.3094 
  98   0.0000      -0.005498        -0.1496 
  99   0.0000       0.010884         0.2962 
 100   0.0000       0.038809         1.0561 
 101   0.0000       0.042096         1.1455 
 102   0.0000       0.045046         1.2258 
 103   0.0000       0.045111         1.2275 
 104   0.0000       0.049972         1.3598 
 105   0.0000       0.068620         1.8672 
 106   0.0000       0.071294         1.9400 
 107   0.0000       0.077159         2.0996 
 108   0.0000       0.084054         2.2872 
*Only the first 10 virtual orbitals were printed.

                    ********************************
                    * MULLIKEN POPULATION ANALYSIS *
                    ********************************

-----------------------
MULLIKEN ATOMIC CHARGES
-----------------------
   0 C :   -0.064993
   1 C :   -0.064655
   2 C :   -0.042736
   3 C :   -0.042520
   4 C :    0.036533
   5 C :    0.199436
   6 F :   -0.225753
   7 C :   -0.122548
   8 C :   -0.094104
   9 C :    0.075434
  10 C :    0.219274
  11 F :   -0.209885
  12 C :   -0.248066
  13 C :    0.310308
  14 O :   -0.241799
  15 O :   -0.206511
  16 C :    0.019354
  17 C :    0.046026
  18 C :    0.197309
  19 F :   -0.228046
  20 C :   -0.110563
  21 C :   -0.079767
  22 C :    0.029752
  23 C :    0.174729
  24 F :   -0.216048
  25 C :    0.193787
  26 F :   -0.209345
  27 C :    0.171852
  28 F :   -0.218380
  29 C :    0.065767
  30 C :    0.052450
  31 C :    0.059609
  32 C :    0.252792
  33 F :   -0.218467
  34 C :    0.079163
  35 C :    0.196258
  36 F :   -0.242145
  37 C :    0.045228
  38 H :    0.028805
  39 H :    0.036894
  40 H :    0.029383
  41 H :    0.043736
  42 H :    0.042242
  43 H :    0.045355
  44 H :    0.043928
  45 H :    0.032962
  46 H :    0.051238
  47 H :    0.057657
  48 H :    0.044971
  49 H :    0.044025
  50 H :    0.039726
  51 H :    0.037636
  52 H :    0.052015
  53 H :    0.030699
Sum of atomic charges:   -0.0000000

--------------------------------
MULLIKEN REDUCED ORBITAL CHARGES
--------------------------------
  0 C s       :     0.937795  s :     0.937795
      pz      :     1.054358  p :     3.052957
      px      :     1.011651
      py      :     0.986947
      dz2     :     0.019479  d :     0.074242
      dxz     :     0.008301
      dyz     :     0.011978
      dx2y2   :     0.021411
      dxy     :     0.013073

  1 C s       :     1.007609  s :     1.007609
      pz      :     0.926786  p :     2.955305
      px      :     1.029021
      py      :     0.999498
      dz2     :     0.022231  d :     0.101742
      dxz     :     0.018946
      dyz     :     0.022299
      dx2y2   :     0.022900
      dxy     :     0.015366

  2 C s       :     0.968392  s :     0.968392
      pz      :     0.962315  p :     2.973950
      px      :     1.023341
      py      :     0.988294
      dz2     :     0.019671  d :     0.100394
      dxz     :     0.020545
      dyz     :     0.023348
      dx2y2   :     0.019203
      dxy     :     0.017626

  3 C s       :     1.044238  s :     1.044238
      pz      :     0.925092  p :     2.869401
      px      :     0.969988
      py      :     0.974320
      dz2     :     0.008117  d :     0.128882
      dxz     :     0.023709
      dyz     :     0.023313
      dx2y2   :     0.037915
      dxy     :     0.035828

  4 C s       :     0.961913  s :     0.961913
      pz      :     1.010271  p :     2.914561
      px      :     0.984076
      py      :     0.920213
      dz2     :     0.005860  d :     0.086993
      dxz     :     0.008469
      dyz     :     0.019397
      dx2y2   :     0.027022
      dxy     :     0.026245

  5 C s       :     1.059142  s :     1.059142
      pz      :     0.917402  p :     2.555727
      px      :     0.934529
      py      :     0.703796
      dz2     :     0.010235  d :     0.185694
      dxz     :     0.029904
      dyz     :     0.037341
      dx2y2   :     0.055679
      dxy     :     0.052535

  6 F s       :     1.885979  s :     1.885979
      pz      :     1.910236  p :     5.316146
      px      :     1.864786
      py      :     1.541124
      dz2     :     0.002734  d :     0.023629
      dxz     :     0.001351
      dyz     :     0.005797
      dx2y2   :     0.006586
      dxy     :     0.007162

  7 C s       :     0.988386  s :     0.988386
      pz      :     1.082814  p :     3.022888
      px      :     0.971479
      py      :     0.968595
      dz2     :     0.007613  d :     0.111274
      dxz     :     0.020807
      dyz     :     0.021216
      dx2y2   :     0.034713
      dxy     :     0.026925

  8 C s       :     1.012758  s :     1.012758
      pz      :     0.997054  p :     2.950999
      px      :     0.973748
      py      :     0.980197
      dz2     :     0.029724  d :     0.130346
      dxz     :     0.019302
      dyz     :     0.028296
      dx2y2   :     0.023927
      dxy     :     0.029096

  9 C s       :     0.970522  s :     0.970522
      pz      :     0.983598  p :     2.867152
      px      :     0.982747
      py      :     0.900806
      dz2     :     0.014936  d :     0.086892
      dxz     :     0.015153
      dyz     :     0.016617
      dx2y2   :     0.020533
      dxy     :     0.019654

 10 C s       :     1.058257  s :     1.058257
      pz      :     0.840060  p :     2.534131
      px      :     0.956143
      py      :     0.737929
      dz2     :     0.040932  d :     0.188337
      dxz     :     0.028087
      dyz     :     0.038986
      dx2y2   :     0.042074
      dxy     :     0.038258

 11 F s       :     1.885409  s :     1.885409
      pz      :     1.739299  p :     5.300428
      px      :     1.931728
      py      :     1.629402
      dz2     :     0.004724  d :     0.024047
      dxz     :     0.002302
      dyz     :     0.008291
      dx2y2   :     0.004811
      dxy     :     0.003920

 12 C s       :     1.016013  s :     1.016013
      pz      :     1.107684  p :     3.130697
      px      :     1.009265
      py      :     1.013748
      dz2     :     0.022917  d :     0.101356
      dxz     :     0.015908
      dyz     :     0.017734
      dx2y2   :     0.020598
      dxy     :     0.024199

 13 C s       :     1.071280  s :     1.071280
      pz      :     0.711161  p :     2.339465
      px      :     0.747873
      py      :     0.880432
      dz2     :     0.015080  d :     0.278947
      dxz     :     0.038843
      dyz     :     0.046359
      dx2y2   :     0.072588
      dxy     :     0.106077

 14 O s       :     1.765242  s :     1.765242
      pz      :     1.361179  p :     4.437550
      px      :     1.763327
      py      :     1.313044
      dz2     :     0.004341  d :     0.039006
      dxz     :     0.000974
      dyz     :     0.014237
      dx2y2   :     0.010047
      dxy     :     0.009407

 15 O s       :     1.679317  s :     1.679317
      pz      :     1.727858  p :     4.484339
      px      :     1.391100
      py      :     1.365381
      dz2     :     0.005233  d :     0.042855
      dxz     :     0.006625
      dyz     :     0.006277
      dx2y2   :     0.016751
      dxy     :     0.007970

 16 C s       :     1.041509  s :     1.041509
      pz      :     1.036436  p :     2.764388
      px      :     1.053112
      py      :     0.674841
      dz2     :     0.036870  d :     0.174749
      dxz     :     0.021607
      dyz     :     0.045906
      dx2y2   :     0.036541
      dxy     :     0.033824

 17 C s       :     0.971705  s :     0.971705
      pz      :     0.984631  p :     2.896844
      px      :     0.963744
      py      :     0.948468
      dz2     :     0.018482  d :     0.085425
      dxz     :     0.013941
      dyz     :     0.020020
      dx2y2   :     0.013887
      dxy     :     0.019095

 18 C s       :     1.050567  s :     1.050567
      pz      :     0.727161  p :     2.568837
      px      :     0.909603
      py      :     0.932073
      dz2     :     0.044676  d :     0.183287
      dxz     :     0.028825
      dyz     :     0.045506
      dx2y2   :     0.031384
      dxy     :     0.032897

 19 F s       :     1.886697  s :     1.886697
      pz      :     1.601293  p :     5.317733
      px      :     1.843093
      py      :     1.873347
      dz2     :     0.007459  d :     0.023616
      dxz     :     0.006095
      dyz     :     0.005598
      dx2y2   :     0.001978
      dxy     :     0.002487

 20 C s       :     0.991322  s :     0.991322
      pz      :     1.025124  p :     3.000461
      px      :     1.007643
      py      :     0.967694
      dz2     :     0.024604  d :     0.118780
      dxz     :     0.014154
      dyz     :     0.032377
      dx2y2   :     0.025048
      dxy     :     0.022597

 21 C s       :     0.997755  s :     0.997755
      pz      :     0.974791  p :     2.953660
      px      :     1.005797
      py      :     0.973071
      dz2     :     0.008906  d :     0.128353
      dxz     :     0.026062
      dyz     :     0.018928
      dx2y2   :     0.038091
      dxy     :     0.036366

 22 C s       :     0.969534  s :     0.969534
      pz      :     1.008450  p :     2.911820
      px      :     0.976187
      py      :     0.927184
      dz2     :     0.006054  d :     0.088894
      dxz     :     0.013881
      dyz     :     0.017459
      dx2y2   :     0.025839
      dxy     :     0.025661

 23 C s       :     1.057515  s :     1.057515
      pz      :     0.970575  p :     2.584823
      px      :     0.683736
      py      :     0.930513
      dz2     :     0.011892  d :     0.182933
      dxz     :     0.040670
      dyz     :     0.026442
      dx2y2   :     0.047507
      dxy     :     0.056422

 24 F s       :     1.888240  s :     1.888240
      pz      :     1.911519  p :     5.303904
      px      :     1.508813
      py      :     1.883572
      dz2     :     0.002735  d :     0.023905
      dxz     :     0.006117
      dyz     :     0.001073
      dx2y2   :     0.007217
      dxy     :     0.006763

 25 C s       :     1.045796  s :     1.045796
      pz      :     1.005986  p :     2.585246
      px      :     0.915287
      py      :     0.663973
      dz2     :     0.012624  d :     0.175170
      dxz     :     0.024480
      dyz     :     0.040742
      dx2y2   :     0.041373
      dxy     :     0.055951

 26 F s       :     1.888823  s :     1.888823
      pz      :     1.895491  p :     5.296099
      px      :     1.936044
      py      :     1.464564
      dz2     :     0.002969  d :     0.024423
      dxz     :     0.000435
      dyz     :     0.007337
      dx2y2   :     0.008056
      dxy     :     0.005626

 27 C s       :     1.057240  s :     1.057240
      pz      :     0.952359  p :     2.587837
      px      :     0.767659
      py      :     0.867819
      dz2     :     0.012413  d :     0.183071
      dxz     :     0.036567
      dyz     :     0.030820
      dx2y2   :     0.054257
      dxy     :     0.049014

 28 F s       :     1.887782  s :     1.887782
      pz      :     1.889975  p :     5.306782
      px      :     1.645101
      py      :     1.771706
      dz2     :     0.002974  d :     0.023816
      dxz     :     0.004697
      dyz     :     0.002936
      dx2y2   :     0.005358
      dxy     :     0.007851

 29 C s       :     0.976148  s :     0.976148
      pz      :     0.972609  p :     2.869565
      px      :     0.987935
      py      :     0.909021
      dz2     :     0.007660  d :     0.088520
      dxz     :     0.009815
      dyz     :     0.020174
      dx2y2   :     0.030259
      dxy     :     0.020613

 30 C s       :     0.982000  s :     0.982000
      pz      :     0.968595  p :     2.868141
      px      :     0.950586
      py      :     0.948961
      dz2     :     0.018952  d :     0.097409
      dxz     :     0.013328
      dyz     :     0.025931
      dx2y2   :     0.015192
      dxy     :     0.024006

 31 C s       :     0.982225  s :     0.982225
      pz      :     0.949242  p :     2.868958
      px      :     0.974654
      py      :     0.945062
      dz2     :     0.014725  d :     0.089208
      dxz     :     0.010668
      dyz     :     0.025695
      dx2y2   :     0.018267
      dxy     :     0.019852

 32 C s       :     1.048614  s :     1.048614
      pz      :     0.769196  p :     2.511550
      px      :     0.813556
      py      :     0.928798
      dz2     :     0.042537  d :     0.187044
      dxz     :     0.032981
      dyz     :     0.037840
      dx2y2   :     0.039553
      dxy     :     0.034134

 33 F s       :     1.884794  s :     1.884794
      pz      :     1.661825  p :     5.309817
      px      :     1.705160
      py      :     1.942832
      dz2     :     0.006172  d :     0.023855
      dxz     :     0.008227
      dyz     :     0.003158
      dx2y2   :     0.003527
      dxy     :     0.002771

 34 C s       :     0.969049  s :     0.969049
      pz      :     0.985442  p :     2.864554
      px      :     0.923556
      py      :     0.955557
      dz2     :     0.016652  d :     0.087234
      dxz     :     0.011822
      dyz     :     0.021699
      dx2y2   :     0.019832
      dxy     :     0.017228

 35 C s       :     1.057442  s :     1.057442
      pz      :     0.936661  p :     2.562398
      px      :     0.645368
      py      :     0.980369
      dz2     :     0.010200  d :     0.183902
      dxz     :     0.037801
      dyz     :     0.028388
      dx2y2   :     0.052579
      dxy     :     0.054933

 36 F s       :     1.885109  s :     1.885109
      pz      :     1.913077  p :     5.333761
      px      :     1.477914
      py      :     1.942770
      dz2     :     0.002709  d :     0.023276
      dxz     :     0.006707
      dyz     :     0.000367
      dx2y2   :     0.007995
      dxy     :     0.005498

 37 C s       :     0.962011  s :     0.962011
      pz      :     1.012936  p :     2.905775
      px      :     0.928781
      py      :     0.964058
      dz2     :     0.006273  d :     0.086987
      dxz     :     0.017142
      dyz     :     0.010473
      dx2y2   :     0.021173
      dxy     :     0.031927

 38 H s       :     0.926416  s :     0.926416
      pz      :     0.012002  p :     0.044779
      px      :     0.021954
      py      :     0.010822

 39 H s       :     0.918041  s :     0.918041
      pz      :     0.022979  p :     0.045065
      px      :     0.010865
      py      :     0.011221

 40 H s       :     0.925842  s :     0.925842
      pz      :     0.012606  p :     0.044776
      px      :     0.012068
      py      :     0.020102

 41 H s       :     0.913135  s :     0.913135
      pz      :     0.011631  p :     0.043129
      px      :     0.021184
      py      :     0.010314

 42 H s       :     0.914690  s :     0.914690
      pz      :     0.012360  p :     0.043068
      px      :     0.011654
      py      :     0.019053

 43 H s       :     0.910437  s :     0.910437
      pz      :     0.013325  p :     0.044208
      px      :     0.011261
      py      :     0.019621

 44 H s       :     0.911871  s :     0.911871
      pz      :     0.012567  p :     0.044200
      px      :     0.021915
      py      :     0.009719

 45 H s       :     0.915759  s :     0.915759
      pz      :     0.014989  p :     0.051280
      px      :     0.026374
      py      :     0.009917

 46 H s       :     0.896822  s :     0.896822
      pz      :     0.020800  p :     0.051939
      px      :     0.020478
      py      :     0.010661

 47 H s       :     0.890455  s :     0.890455
      pz      :     0.017972  p :     0.051888
      px      :     0.018861
      py      :     0.015055

 48 H s       :     0.902784  s :     0.902784
      pz      :     0.015295  p :     0.052245
      px      :     0.020702
      py      :     0.016248

 49 H s       :     0.902891  s :     0.902891
      pz      :     0.014059  p :     0.053084
      px      :     0.026714
      py      :     0.012311

 50 H s       :     0.909145  s :     0.909145
      pz      :     0.017126  p :     0.051129
      px      :     0.018665
      py      :     0.015337

 51 H s       :     0.911863  s :     0.911863
      pz      :     0.022366  p :     0.050502
      px      :     0.014546
      py      :     0.013590

 52 H s       :     0.896182  s :     0.896182
      pz      :     0.018003  p :     0.051803
      px      :     0.011787
      py      :     0.022013

 53 H s       :     0.917924  s :     0.917924
      pz      :     0.014735  p :     0.051378
      px      :     0.012712
      py      :     0.023930



                     *******************************
                     * LOEWDIN POPULATION ANALYSIS *
                     *******************************

----------------------
LOEWDIN ATOMIC CHARGES
----------------------
   0 C :   -0.110397
   1 C :   -0.079449
   2 C :   -0.070883
   3 C :   -0.016367
   4 C :   -0.029838
   5 C :    0.047480
   6 F :   -0.065696
   7 C :   -0.038389
   8 C :   -0.018594
   9 C :   -0.012561
  10 C :    0.046312
  11 F :   -0.053543
  12 C :   -0.039050
  13 C :   -0.018733
  14 O :   -0.080756
  15 O :    0.037302
  16 C :   -0.027549
  17 C :   -0.015765
  18 C :    0.043590
  19 F :   -0.066327
  20 C :   -0.037292
  21 C :   -0.031893
  22 C :   -0.020945
  23 C :    0.037535
  24 F :   -0.061562
  25 C :    0.038506
  26 F :   -0.056025
  27 C :    0.038754
  28 F :   -0.062694
  29 C :   -0.009583
  30 C :   -0.013630
  31 C :   -0.022242
  32 C :    0.044714
  33 F :   -0.055592
  34 C :   -0.013363
  35 C :    0.048242
  36 F :   -0.069895
  37 C :   -0.028914
  38 H :    0.043098
  39 H :    0.046816
  40 H :    0.043450
  41 H :    0.046235
  42 H :    0.045619
  43 H :    0.053853
  44 H :    0.053486
  45 H :    0.054581
  46 H :    0.060196
  47 H :    0.057869
  48 H :    0.057162
  49 H :    0.055552
  50 H :    0.055751
  51 H :    0.056577
  52 H :    0.059675
  53 H :    0.055175

-------------------------------
LOEWDIN REDUCED ORBITAL CHARGES
-------------------------------
  0 C s       :     0.766728  s :     0.766728
      pz      :     1.063301  p :     3.098422
      px      :     1.031732
      py      :     1.003390
      dz2     :     0.064331  d :     0.245246
      dxz     :     0.026599
      dyz     :     0.039054
      dx2y2   :     0.073528
      dxy     :     0.041735

[...]
  28 F       0.001483     -0.091848      0.064635      0.111405     -0.042684      0.058932     -0.050388     -0.069956     -0.019232     -0.057177
  29 C       0.121629     -0.448868      0.095699      0.206459     -0.082075      0.327480     -0.140819     -0.011857      0.104979     -0.012683
  30 C       0.079869      0.483596      0.228773     -0.066759      0.066261     -0.098346      0.154556     -0.203171     -0.044505     -0.183750
  31 C      -0.277253     -0.505176     -0.017618      0.148300      0.122949      0.044606     -0.194673     -0.189646      0.176487      0.181023
  32 C      -0.193268     -0.002716      0.156115     -0.128172     -0.007685     -0.245601      0.043638      0.108745      0.274822      0.078345
  33 F      -0.094804     -0.050532     -0.045494     -0.002783      0.087230      0.016758     -0.011655     -0.131424     -0.078317      0.011683
  34 C       0.058632      0.187731      0.146695      0.244779      0.244071      0.333183     -0.007667     -0.195121     -0.060226     -0.030519
  35 C      -0.052779      0.110215      0.036736     -0.117300     -0.024260     -0.401252      0.031910     -0.124785      0.022357     -0.025628
  36 F      -0.254322     -0.099829     -0.036611      0.024668      0.039301      0.044190      0.001512      0.073512     -0.013403     -0.029667
  37 C      -0.476446      0.218630      0.034485      0.164822      0.063991      0.333751     -0.063180      0.085775     -0.090384     -0.008790
  38 H       0.031316     -0.035755      0.033580     -0.008084      0.006216      0.019528      0.000659      0.009473      0.001216     -0.012655
  39 H      -0.024788     -0.019185     -0.050053     -0.001751     -0.023100      0.003560      0.000226     -0.005819     -0.023641     -0.007401
  40 H      -0.048703      0.024511      0.037069      0.011648      0.003296     -0.006595     -0.000826     -0.012833      0.007402      0.004750
  41 H      -0.045378      0.033262     -0.007383      0.005864      0.004654     -0.022159     -0.000380     -0.014996      0.005661      0.013414
  42 H       0.049359     -0.040040     -0.012117     -0.014489      0.003999      0.007698     -0.000290      0.015549      0.003318     -0.009737
  43 H      -0.037541      0.036156      0.010156      0.015267     -0.005192     -0.008086      0.000636     -0.014773     -0.002293      0.009869
  44 H       0.041174     -0.021955      0.005452     -0.006588     -0.004152      0.018879      0.001234      0.014497     -0.006032     -0.012687
  45 H       0.047135     -0.002777     -0.005346      0.000968     -0.003603      0.017440     -0.001467      0.013643     -0.003754      0.001215
  46 H       0.035815      0.004812     -0.032422      0.003657     -0.014248      0.015521     -0.001009      0.013621     -0.013445      0.000044
  47 H       0.037856     -0.034208     -0.027696     -0.010278     -0.009998      0.013710      0.000446      0.011773     -0.006379     -0.007983
  48 H      -0.037851     -0.041902      0.002842     -0.011053      0.002422     -0.012621      0.001199     -0.011141      0.002159     -0.009984
  49 H       0.047930     -0.028468      0.003043     -0.008492      0.000542      0.017173     -0.001407      0.014562      0.003110     -0.006908
  50 H      -0.026532      0.040690      0.036130      0.010465      0.013268     -0.012022      0.000718     -0.012559      0.011812      0.006007
  51 H      -0.021645     -0.024025      0.039729     -0.004134      0.015330     -0.006630     -0.001950     -0.010123      0.015396     -0.005534
  52 H       0.005179      0.045605      0.026354      0.016586      0.009208      0.006142     -0.000635     -0.000424      0.010779      0.013884
  53 H      -0.016551      0.046894     -0.004570      0.015169     -0.002290     -0.002635     -0.001403     -0.002701     -0.004061      0.013441

 MBIS THIRD RADIAL MOMENT (A.U.):
  ATOM      <r^3>
   0 C   44.271842
   1 C   40.801618
   2 C   41.875930
   3 C   33.492498
   4 C   40.980694
   5 C   29.723568
   6 F   18.081362
   7 C   38.895313
   8 C   32.393818
   9 C   40.263692
  10 C   29.396950
  11 F   18.097685
  12 C   43.296347
  13 C   22.939625
  14 O   25.756248
  15 O   24.194421
  16 C   30.284029
  17 C   40.939202
  18 C   29.825867
  19 F   18.068141
  20 C   37.127795
  21 C   33.584508
  22 C   39.887201
  23 C   31.637326
  24 F   18.097211
  25 C   33.841339
  26 F   17.901865
  27 C   31.603905
  28 F   18.099973
  29 C   39.678127
  30 C   36.457921
  31 C   39.836421
  32 C   29.105996
  33 F   17.828845
  34 C   40.107951
  35 C   29.770331
  36 F   17.963427
  37 C   40.891076
  38 H    2.380816
  39 H    2.349987
  40 H    2.374948
  41 H    2.278577
  42 H    2.289713
  43 H    2.205194
  44 H    2.210764
  45 H    2.013261
  46 H    1.906946
  47 H    1.800612
  48 H    1.969340
  49 H    1.890991
  50 H    2.123162
  51 H    2.011212
  52 H    1.911336
  53 H    2.004503

-------------------------
RESP CHARGES GENERATION
-------------------------
Number of atoms                    ...           54
Number of "pure atoms"             ...           54
Grid spacing                       ...     0.300000
Point Cut-Off                      ...     2.800000
Van-der-Waals Radii                ...        COSMO
Total charge                       ...            0
Penalty function                   ... hyperbolic
Penalty function wa                ... 0.000500
Penalty function wb                ... 0.100000
Dipole moment constraint           ...        FALSE
Equivalent atom charge constraint  ...        FALSE

Grid generated                     ...      0.0 sec
Grid points                        ...        26840
Potential calculated               ...      9.7 sec
RespFile stored                    ...           ok

Iter     dqmax
--------------

0     0.962563
1     0.042304
2     0.005443
3     0.000746
4     0.000103
5     0.000014
6     0.000002
7     0.000000

Charges calculated                 ...      1.1 sec

RESP Charges            
--------------------------------
  0   C   :      -0.459175
  1   C   :       0.250379
  2   C   :      -0.105177
  3   C   :       0.099103
  4   C   :      -0.392771
  5   C   :       0.347620
  6   F   :      -0.197385
  7   C   :      -0.274888
  8   C   :       0.449515
  9   C   :      -0.546323
 10   C   :       0.532266
 11   F   :      -0.213659
 12   C   :      -0.577108
 13   C   :       0.949344
 14   O   :      -0.524311
 15   O   :      -0.501813
 16   C   :       0.536852
 17   C   :      -0.527458
 18   C   :       0.363254
 19   F   :      -0.212984
 20   C   :       0.001169
 21   C   :       0.164565
 22   C   :      -0.440772
 23   C   :       0.312116
 24   F   :      -0.183403
 25   C   :       0.109140
 26   F   :      -0.153408
 27   C   :       0.285797
 28   F   :      -0.178002
 29   C   :      -0.424677
 30   C   :      -0.211256
 31   C   :      -0.338475
 32   C   :       0.483083
 33   F   :      -0.202635
 34   C   :      -0.518345
 35   C   :       0.365210
 36   F   :      -0.216983
 37   C   :      -0.414795
 38   H   :       0.107906
 39   H   :       0.114003
 40   H   :       0.109558
 41   H   :      -0.010783
 42   H   :      -0.015192
 43   H   :       0.066257
 44   H   :       0.064962
 45   H   :       0.221674
 46   H   :       0.252572
 47   H   :       0.262699
 48   H   :       0.234813
 49   H   :       0.270408
 50   H   :       0.193555
 51   H   :       0.216874
 52   H   :       0.246066
 53   H   :       0.231022
--------------------------------
Total charge:    -0.000000
--------------------------------

RESP charges calculated...

Timings:
Grid generation                 ...        0.020 sec (=   0.000 min)
Potential calculation           ...        9.742 sec (=   0.162 min)
Fit to the potential            ...        1.138 sec (=   0.019 min)
------------------------------------------------------------------------------

-------
TIMINGS
-------

Total SCF time: 0 days 0 hours 11 min 19 sec 

Total time                  ....     679.096 sec
Sum of individual times     ....     657.969 sec  ( 96.9%)

SCF preparation             ....       1.827 sec  (  0.3%)
Fock matrix formation       ....     529.310 sec  ( 77.9%)
  Startup                   ....       0.124 sec  (  0.0% of F)
  Split-RI-J                ....      39.070 sec  (  7.4% of F)
  Chain of spheres X        ....     491.810 sec  ( 92.9% of F)
  XC integration            ....      18.507 sec  (  3.5% of F)
    XC Preparation          ....       0.000 sec  (  0.0% of XC)
    Basis function eval.    ....       4.294 sec  ( 23.2% of XC)
    Density eval.           ....       4.120 sec  ( 22.3% of XC)
    XC-Functional eval.     ....       0.851 sec  (  4.6% of XC)
    XC-Potential eval.      ....       4.500 sec  ( 24.3% of XC)
Diagonalization             ....       0.000 sec  (  0.0%)
Density matrix formation    ....       0.352 sec  (  0.1%)
Total Energy calculation    ....       0.173 sec  (  0.0%)
Population analysis         ....     123.946 sec  ( 18.3%)
Orbital Transformation      ....       0.247 sec  (  0.0%)
Orbital Orthonormalization  ....       0.000 sec  (  0.0%)
DIIS solution               ....       1.352 sec  (  0.2%)
SOSCF solution              ....       0.762 sec  (  0.1%)
Finished LeanSCF after 679.2 sec

Maximum memory used throughout the entire LEANSCF-calculation: 144.6 MB


-------------------------------------------------------------------------------
                          DFT DISPERSION CORRECTION                            
                                                                               
                                DFTD4 V3.4.0                                   
-------------------------------------------------------------------------------
The wB97X-3c composite method is recognized
Using three-body term ABC
Active option DFTDOPT                   ...         5   

-------------------------   ----------------
Dispersion correction           -0.092423245
-------------------------   ----------------


-------------------------   --------------------
FINAL SINGLE POINT ENERGY      -395.795516591477
-------------------------   --------------------



           ************************************************************
           *        Program running with 4 parallel MPI-processes     *
           *              working on a common directory               *
           ************************************************************

------------------------------------------------------------------------------
                              ORCA PROPERTY CALCULATIONS
------------------------------------------------------------------------------

GBWName                                 ... conf_031.gbw
Number of atoms                         ...     54
Number of basis functions               ...    574
Max core memory                         ...   4000 MB

Electric properties:
Dipole moment                           ... YES
Quadrupole moment                       ...  NO
Static polarizability (Dipole/Dipole)   ...  NO
Static polarizability (Dipole/Quad.)    ...  NO
Static polarizability (Quad./Quad.)     ...  NO
Static polarizability (Velocity)        ...  NO
Static hyperpolarizability              ...  NO

Atomic electric properties:
Dipole moment                           ...  NO
Quadrupole moment                       ...  NO
Static polarizability                   ...  NO

Choice of electric origin               ... Center of mass
Position of electric origin             ...    -1.423377    -0.816025     0.339312

General magnetic properties:
Magnetizability                         ...  NO

EPR properties:
g-Tensor (aka g-matrix)                 ...  NO
Zero-Field splitting spin-orbit         ...  NO
Zero-field splitting spin-spin          ...  NO
Hyperfine couplings                     ...  NO (   0 nuclei)
Quadrupole couplings                    ...  NO (   0 nuclei)
Contact density                         ...  NO (   0 nuclei)

NMR properties:
Chemical shifts                         ...  NO (   0 nuclei)
Spin-rotation constants                 ...  NO (   0 nuclei)
Spin-spin couplings                     ...  NO (   0 nuclei,    0 pairs)

Choice of magnetic origin               ... GIAO
Position of magnetic origin             ...     0.000000     0.000000     0.000000

Properties with geometric perturbations:
SCF Hessian                             ...  NO
IR spectrum                             ...  NO
VCD spectrum                            ...  NO
X-ray spectroscopy properties:
SCF XES/XAS/RIXS spectra                ...  NO

SCF SOC stabilization energy            ...  NO
Diagonal Born-Oppenheimer correction    ...  NO

-------------
DIPOLE MOMENT
-------------

Method             : SCF
Type of density    : Electron Density
Multiplicity       :   1
Irrep              :   0
Energy             :  -395.7030933464542386 Eh
Basis              : AO
                                X                 Y                 Z
Electronic contribution:    -37.141602303     -23.966456352      10.003544725
Nuclear contribution   :     38.569207381      25.599603406     -10.024977239
                        -----------------------------------------
Total Dipole Moment    :      1.427605077       1.633147053      -0.021432514
                        -----------------------------------------
Magnitude (a.u.)       :      2.169259069
Magnitude (Debye)      :      5.513818362



--------------------
Rotational spectrum 
--------------------
 
Rotational constants in cm-1:             0.003100             0.002632             0.001530 
Rotational constants in MHz :            92.942366            78.893780            45.857635 

Dipole components along the rotational axes: 
x,y,z [a.u.] :     1.202936     1.756483     0.416412 
x,y,z [Debye]:     3.057619     4.464625     1.058434 

 

Dipole moment calculation done in   0.0 sec 

Maximum memory used throughout the entire PROP-calculation: 68.8 MB

--------------------------------
SUGGESTED CITATIONS FOR THIS RUN
--------------------------------

Below you find a list of papers that are relevant to this ORCA run
We neither can nor want to force you to cite these papers, but we appreciate if you do
You receive ORCA, which is the product of decades of hard work by many enthusiastic individuals, for free
The only thing we kindly ask in return is that you cite our papers,
We deeply appreciate it, if you show your appreciation for ORCA by not just citing the generic ORCA reference.

Please note that relegating all ORCA citations to the supporting information does *not* help us.
SI sections are not indexed - citations you put there will not count into any citation statistics
But we need these citations in order to attract the funding resources that allow us to do what we are doing

Therefore, if you are a happy ORCA user, please consider citing a few of the papers listed below in the main body of your paper

In addition to the list printed below, the program has created the file conf_031.bibtex that contains the list in bibtex format
You can import this file easily into all common literature databanks and citation aid programs


List of essential papers. We consider these as the minimum necessary citations

  1. Mueller, M.; Hansen, A.; Grimme, S.
     wB97X-3c: A composite range-separated hybrid DFT method with a molecule-optimized polarized valence double-zeta basis set
     J. Chem. Phys. 2023 158 , 014103
     doi.org/10.1063/5.0133026
  2. Neese, F.
     Software update: the ORCA program system, version 6.0
     WIRES Comput. Molec. Sci. 2025 15(1), e70019
     doi.org/10.1002/wcms.7019

List of papers to cite with high priority. The work reported in these papers was absolutely
necessary for this run to complete.
Our perspective: the developers of density functionals and basis sets usually get cited in chemistry papers
Good! But without the algorithms to do something with them, the functionals or basis sets would not do anything.
Hence, in our opinion, the algorithm design and method developments papers are equally worthy of getting cited

  1. Neese, F.
     An improvement of the resolution of the identity approximation for the formation of the Coulomb matrix
     J. Comp. Chem. 2003 24(14), 1740-1747
     doi.org/10.1002/jcc.10318
  2. Neese, F.; Wennmohs, F.; Hansen, A.; Becker, U.
     Efficient, approximate and parallel Hartree-Fock and hybrid DFT calculations. A 'chain-of-spheres' algorithm for the Hartree-Fock exchange
     Chem. Phys. 2009 356(1-3), 98-109
     doi.org/10.1016/j.chemphys.2008.10.036
  3. Caldeweyher, E.; Bannwarth, C.; Grimme, S.
     Extension of the D3 dispersion coefficient model
     J. Chem. Phys. 2017 147 , 034112
     doi.org/10.1063/1.4993215
  4. Caldeweyher, E.; Ehlert, S.; Hansen, A.; Neugebauer, H.; Spicher, S.; Bannwarth, C.; Grimme, S.
     A generally applicable atomic-charge dependent London dispersion correction
     J. Chem. Phys. 2019 150 , 154122
     doi.org/10.1063/1.5090222
  5. Caldeweyher, E.; Mewes, J.; Ehlert, S.; Grimme, S.
     Extension and evaluation of the D4 London-dispersion model for periodic systems
     Phys. Chem. Chem. Phys. 2020 22(16), 8499-8512
     doi.org/10.1039/D0CP00502A
  6. Helmich-Paris, B.; de Souza, B.; Neese, F.; Izsák, R.
     An improved chain of spheres for exchange algorithm
     J. Chem. Phys. 2021 155(10), 104109
     doi.org/10.1063/5.0058766
  7. Neese, F.
     The SHARK Integral Generation and Digestion System
     J. Comp. Chem. 2022 44(3), 381
     doi.org/10.1002/jcc.26942
  8. Wittmann, L.; Gordiy, I.; Friede, M.; Helmich-Paris, B.; Grimme, S.; Hansen, A.; Bursch, M.
     Extension of the D3 and D4 London Dispersion Corrections to the full Actinides Series
     Phys. Chem. Chem. Phys. 2024 26(32), 21379-21394
     doi.org/10.1039/D4CP01514B

List of suggested additional citations. These are papers that are important in the 'surrounding' of 
of this run, or papers that preceded the highly important papers. If you like your results we are grateful for a citation.

  1. Izsak, R.; Neese, F.
     An overlap fitted chain of spheres exchange method
     J. Chem. Phys. 2011 135 , 144105
     doi.org/10.1063/1.3646921
  2. Izsak, R.; Hansen, A.; Neese, F.
     The resolution of identity and chain of spheres approximations for the LPNO-CCSD singles Fock term
     Molec. Phys. 2012 110 , 2413-2417
     doi.org/10.1080/00268976.2012.687466
  3. Neese, F.
     The ORCA program system
     WIRES Comput. Molec. Sci. 2012 2(1), 73-78
     doi.org/10.1002/wcms.81
  4. Izsak, R.; Neese, F.; Klopper, W.
     Robust fitting techniques in the chain of spheres approximation to the Fock exchange: The role of the complementary space
     J. Chem. Phys. 2013 139 , 
     doi.org/10.1063/1.4819264
  5. Neese, F.
     Software update: the ORCA program system, version 4.0
     WIRES Comput. Molec. Sci. 2018 8(1), 1-6
     doi.org/10.1002/wcms.1327
  6. Neese, F.; Wennmohs, F.; Becker, U.; Riplinger, C.
     The ORCA quantum chemistry program package
     J. Chem. Phys. 2020 152(22), 224108
     doi.org/10.1063/5.0004608
  7. Neese, F.
     Software update: The ORCA program system—Version 5.0
     WIRES Comput. Molec. Sci. 2022 12(1), e1606
     doi.org/10.1002/wcms.1606

List of optional additional citations

  1. Neese, F.
     Approximate second-order SCF convergence for spin unrestricted wavefunctions
     Chem. Phys. Lett. 2000 325(1-3), 93-98
     doi.org/10.1016/s0009-2614(00)00662-x

Timings for individual modules:

Sum of individual times          ...      697.450 sec (=  11.624 min)
Startup calculation              ...        9.841 sec (=   0.164 min)   1.4 %
SCF iterations                   ...      685.714 sec (=  11.429 min)  98.3 %
Property calculations            ...        1.895 sec (=   0.032 min)   0.3 %
                             ****ORCA TERMINATED NORMALLY****
TOTAL RUN TIME: 0 days 0 hours 11 minutes 39 seconds 305 msec
