Loading openmpi/5.0.6/gcc-14.2.0
  Loading requirement: gcc/14.2.0

                                 *****************
                                 * O   R   C   A *
                                 *****************

                                            #,                                       
                                            ###                                      
                                            ####                                     
                                            #####                                    
                                            ######                                   
                                           ########,                                 
                                     ,,################,,,,,                         
                               ,,#################################,,                 
                          ,,##########################################,,             
                       ,#########################################, ''#####,          
                    ,#############################################,,   '####,        
                  ,##################################################,,,,####,       
                ,###########''''           ''''###############################       
              ,#####''   ,,,,##########,,,,          '''####'''          '####       
            ,##' ,,,,###########################,,,                        '##       
           ' ,,###''''                  '''############,,,                           
         ,,##''                                '''############,,,,        ,,,,,,###''
      ,#''                                            '''#######################'''  
     '                                                          ''''####''''         
             ,#######,   #######,   ,#######,      ##                                
            ,#'     '#,  ##    ##  ,#'     '#,    #''#        ,####,    ,#,          
            ##       ##  ##   ,#'  ##            #'  '#       #'       ,# #          
            ##       ##  #######   ##           ,######,      #####,      #          
            '#,     ,#'  ##    ##  '#,     ,#' ,#      #,     #,   #      #          
             '#######'   ##     ##  '#######'  #'      '#     '####' #    #          



                #########################################################
                #                        -***-                          #
                #          Department of theory and spectroscopy        #
                #                                                       #
                #                      Frank Neese                      #
                #                                                       #
                #     Directorship, Architecture, Infrastructure        #
                #                    SHARK, DRIVERS                     #
                #        Core code/Algorithms in most modules           #
                #                                                       #
                #        Max Planck Institute fuer Kohlenforschung      #
                #                Kaiser Wilhelm Platz 1                 #
                #                 D-45470 Muelheim/Ruhr                 #
                #                      Germany                          #
                #                                                       #
                #                  All rights reserved                  #
                #                        -***-                          #
                #########################################################


                         Program Version 6.1.0  -  RELEASE   -
                                (GIT: $679e74b$)
                          ($2025-06-10 18:02:51 +0200$)


 With contributions from (in alphabetic order):
[Max-Planck-Institut fuer Kohlenforschung]                               
  Daniel Aravena         : Magnetic Suceptibility                        
  Michael Atanasov       : Ab Initio Ligand Field Theory (pilot matlab implementation)
  Alexander A. Auer      : GIAO ZORA, VPT2 properties, NMR spectrum      
  Ute Becker             : All parallelization in ORCA, NUMFREQ, NUMCALC 
  Giovanni Bistoni       : ED, misc. LED, open-shell LED, HFLD           
  Dmytro Bykov           : pre 5.0 version of the SCF Hessian            
  Marcos Casanova-Páez   : Triplet and SCS-CIS(D). UHF-(DLPNO)-IP/EA/STEOM-CCSD. UHF-CVS-IP/STEOM-CCSD   
  Vijay G. Chilkuri      : MRCI spin determinant printing, contributions to CSF-ICE 
  Pauline Colinet        : FMM embedding                                 
  Dipayan Datta          : RHF DLPNO-CCSD density                        
  Achintya Kumar Dutta   : EOM-CC, STEOM-CC                              
  Nicolas Foglia         : Exact transition moments, OPA infrastructure, MCD improvements    
  Dmitry Ganyushin       : Spin-Orbit,Spin-Spin,Magnetic field MRCI      
  Miquel Garcia-Rates    : C-PCM and meta-GGA Hessian, CCSD/C-PCM, Gaussian charge scheme 
  Tiago L. C. Gouveia    : GS-ROHF, GS-ROCIS                             
  Yang Guo               : DLPNO-NEVPT2, F12-NEVPT2, CIM, IAO-localization        
  Andreas Hansen         : Spin unrestricted coupled pair/coupled cluster methods 
  Ingolf Harden          : AUTO-CI MPn and infrastructure                
  Benjamin Helmich-Paris : MC-RPA, TRAH-(SCF,CASSCF), AVAS, COSX integrals, SCF dyn. polar., MC-PDFT, srDFT 
  Lee Huntington         : MR-EOM, pCC                                   
  Robert Izsak           : Overlap fitted RIJCOSX, COSX-SCS-MP3, EOM     
  Riya Kayal             : Wick's Theorem for AUTO-CI, AUTO-CI UHF-CCSDT 
  Emily Kempfer          : AUTO-CI RHF CISDT and CCSDT, approximate NEVPT4
  Christian Kollmar      : KDIIS, OOCD, Brueckner-CCSD(T), CCSD density, CASPT2, CASPT2-K, improved NEVPT2 
  Axel Koslowski         : Symmetry handling                             
  Simone Kossmann        : meta-GGA functionals, TD-DFT gradient, OOMP2, (MP2 Hessian; deprecated post 5.0) 
  Lucas Lang             : DCDCAS, Hyperfine gauge corrections, ICE-SOC+SSC
  Marvin Lechner         : AUTO-CI (C++ implementation), FIC-MRCC        
  Spencer Leger          : CASSCF response                               
  Dagmar Lenk            : GEPOL surface, SMD, ORCA-2-JSON               
  Dimitrios Liakos       : Extrapolation schemes; Compound Job, Property file
  Dimitrios Manganas     : Further ROCIS development; embedding schemes. LFT, Crystal Embedding 
  Dimitrios Pantazis     : SARC Basis sets                               
  Anastasios Papadopoulos: AUTO-CI, single reference methods and gradients 
  Taras Petrenko         : pre 6.0 DFT Hessian and TD-DFT gradient,  ECA, NRVS 
  Petra Pikulova         : Analytic Raman intensities                    
  Peter Pinski           : DLPNO-MP2, DLPNO-MP2 Gradient                 
  Shashank Vittal Rao    : ES-AILFT, MagRelax                            
  Christoph Reimann      : Effective Core Potentials                     
  Marius Retegan         : Local ZFS, SOC                                
  Christoph Riplinger    : Optimizer, TS searches, QM/MM, DLPNO-CCSD(T), (RO)-DLPNO pert. Triples 
  Michael Roemelt        : Original ROCIS implementation, recursive CI coupling coefficients
  Masaaki Saitow         : Open-shell DLPNO-CCSD energy and density      
  Barbara Sandhoefer     : DKH picture change effects                    
  Yorick L. A. Schmerwitz: GMF and freeze-and-release deltaSCF, NEB S-IDPP initial path                    
  Kantharuban Sivalingam : CASSCF convergence/infrastructure, NEVPT2, NEVPT3, NEVPT4(SD), FIC-MRCI and CEPA variants
  Bernardo de Souza      : ESD, SOC TD-DFT                               
  Georgi L. Stoychev     : AutoAux, RI-MP2 NMR, DLPNO-MP2 response, X2C  
  Van Anh Tran           : RI-MP2 g-tensors                              
  Willem Van den Heuvel  : Paramagnetic NMR                              
  Zikuan Wang            : NOTCH, Electric field optimization            
  Frank Wennmohs         : Technical directorship and infrastructure     
  Hang Xu                : AUTO-CI-Response properties                   
                                                                         
[FACCTs GmbH]                                                            
  Markus Bursch, Nicolas Foglia, Miquel Garcia-Rates, Ingolf Harden, Hagen Neugebauer, Anastasios Papadopoulos, 
  Christoph Riplinger, Bernardo de Souza, Georgi L. Stoychev                                                    
                                                                 
  APM, various basis sets, CI-OPT, improved COSX, DLPNO-Multilevel,           
  DOCKER, DRACO, updates on ESD, Fragmentator, GOAT, IRC, LR-CPCM, L-BFGS, MBIS, meta-GGA TD-DFT gradient, ML-optimized integration grids, 
  MM, NACMEs, nearIR, NEB, NEB-TS, NL-DFT gradient (VV10), 2- and 3-layer-ONIOM, interface openCOSMO-RS, QMMM,   
  Crystal-QMMM, RESP, rigid body optimization, SF, symmetry and pop. for TD-DFT, various functionals, SOLVATOR                                   
                                                                         
[Other institutions]                                                     
  V. Asgeirsson          : NEB                                           
  Christoph Bannwarth    : sTDA-DFT, sTD-DFT, PBEh-3c, B97-3c, D3        
  Giovanni Bistoni       : ETS/NOCV, ADLD/ADEX, COVALED                  
  Martin Brehm           : Molecular dynamics                            
  Ronald Cardenas        : ETS/NOCV                                      
  Martina Colucci        : COVALED                                       
  Sebastian Ehlert       : rSCAN, r2SCAN, r2SCAN-3c, D4, dhf basis sets  
  Marvin Friede          : D4 for Fr, Ra, Ac-Lr                          
  Lars Goerigk           : TD-DFT with DH, B97 family of functionals     
  Stefan Grimme          : VdW corrections, initial TS optimization, DFT functionals, gCP, sTDA/sTD-DF 
  Waldemar Hujo          : DFT-NL                                        
  H. Jonsson             : NEB                                           
  Holger Kruse           : gCP                                           
  Marcel Mueller         : wB97X-3c, vDZP basis set                      
  Hagen Neugebauer       : wr2SCAN, Native XTB                           
  Gianluca Regni         : ADLD/ADEX                                     
  Tobias Risthaus        : pre 6.0 range-separated hybrid DFT and stability analysis
  Lukas Wittmann         : regularized MP2, r2SCAN double-hybrids, wr2SCAN        
                                                                         
We gratefully acknowledge several colleagues who have allowed us to      
interface, adapt or use parts of their codes:                            
  Ed Valeev, F. Pavosevic, A. Kumar             : LibInt (2-el integral package), F12 methods 
  Garnet Chan, S. Sharma, J. Yang, R. Olivares  : DMRG                   
  Ulf Ekstrom                                   : XCFun DFT Library      
  Mihaly Kallay                                 : mrcc  (arbitrary order and MRCC methods)
  Frank Weinhold                                : gennbo (NPA and NBO analysis)           
  Simon Mueller                                 : openCOSMO-RS                            
  Christopher J. Cramer and Donald G. Truhlar   : smd solvation model                     
  S Lehtola, MJT Oliveira, MAL Marques          : LibXC Library                           
  Liviu Ungur et al                             : ANISO software                          


 Your calculation uses the libint2 library for the computation of 2-el integrals
 For citations please refer to: http://libint.valeyev.net

 Your ORCA version has been built with support for libXC version: 7.0.0
 For citations please refer to: https://libxc.gitlab.io

 This ORCA versions uses:
   CBLAS   interface :  Fast vector & matrix operations
   LAPACKE interface :  Fast linear algebra routines
   SCALAPACK package :  Parallel linear algebra routines
   Shared memory     :  Shared parallel matrices
   BLAS/LAPACK       :  OpenBLAS 0.3.29  USE64BITINT DYNAMIC_ARCH NO_AFFINITY Cooperlake SINGLE_THREADED
        Core in use  :  Cooperlake
   Copyright (c) 2011-2014, The OpenBLAS Project


  ***********************************
  * Starting time: Wed May 13 14:54:46 2026
  * Host name:     node023.aire.lee.alces.network
  * Process ID:    1204223
  * Working dir.:  /tmp/job.4919705
  ***********************************

NOTE: MaxCore=4000 MB was set to SCF,MP2,MDCI,CIPSI,MRCI,RASCI and CIS
      => If you want to overwrite this, your respective input block should be placed after the MaxCore statement


***************************************
The coordinates will be read from file: conf_004.xyz
***************************************


Your calculation utilizes the atom-pairwise dispersion correction
based on EEQ partial charges (D4)


================================================================================

cite the ECPs for C  [vDZP-ECP], F  [vDZP-ECP], O  [vDZP-ECP] as follows:
   B-Ne (ecp-2-mwb), Al-Ar (ecp-10-mwb), Ga-Kr (ecp-28-mwb), Y-Cd (ecp-28-mwb), In-Xe (ecp-46-mwb):
     A. Bergner, M. Dolg, W. Küchle, H. Stoll, and H. Preuß, Mol. Phys. 80, 1431 (1993)., T. Leininger, A. Berning, A. Nicklass, H. Stoll, H.-J. Werner, and H.-J.Flad, Chem. Phys. 217, 19 (1997).
   Na-Mg, K-Ca, Rb-Sr, Cs-Ba (CRENBL):
     L. Fernandez Pacios and P. A. Christiansen, J. Chem. Phys. 82, 2664 (1985)., M. M. Hurley, L. F. Pacios, P. A. Christiansen, R. B. Ross, and W. C. Ermler, J. Chem. Phys. 84, 6840 (1986)., L. A. LaJohn, P. A. Christiansen, R. B. Ross, T. Atashroo, and W. C. Ermler, J. Chem. Phys. 87, 2812 (1987)., R. B. Ross, J. M. Powers, T. Atashroo, W. C. Ermler, L. A. LaJohn, and P. A. Christiansen, J. Chem. Phys. 93, 6654 (1990). 
   Sc-Zn (ecp-10-mdf):
     M. Dolg, U. Wedig, H. Stoll, and H. Preuss, J. Chem. Phys. 86, 866 (1986). 
   Y-Cd (ecp-28-mwb), Hf-Hg (ecp-60-mwb):
     D. Andrae, U. Häußermann, M. Dolg, H. Stoll, and H. Preuß, Theor. Chim. Acta 77, 123 (1990). 
   La (ecp-46-mwb):
     M. Dolg, H. Stoll, and H. Preuss, J. Chem. Phys. 90, 1730 (1989)., M. Dolg, H. Stoll, and H. Preuss, Theor. Chim. Acta 85, 441 (1993).
   Ce-Lu (SBKJC-ecp):
     T. R. Cundari and W. J. Stevens, J. Chem. Phys. 98, 5555 (1993).
   Tl-Rn (ecp-78-mwb):
     W. Küchle, M. Dolg, H. Stoll, and H. Preuss, Mol. Phys. 74, 1245 (1991).

ECP parameters for C  [vDZP-ECP], F  [vDZP-ECP], O  [vDZP-ECP] have been obtained from:
MM, AH, SG, J. Chem. Phys. 158, 014103 (2023), 10.1063/5.0133026

----- Orbital basis set information -----
Your calculation utilizes the basis: vDZP
   Marcel Mueller, Andreas Hansen, Stefan Grimme 
   J. Chem. Phys. 158, 014103 (2023). DOI: 10.1063/5.0133026

----- AuxJ basis set information -----
Your calculation utilizes the auxiliary basis: def2/J
   H-Rn: F. Weigend, Phys. Chem. Chem. Phys. 8, 1057 (2006).
   Fr-Lr: K. Eichkorn, F. Weigend, O. Treutler, R. Ahlrichs; Theor. Chem. Acc. 97, 119 (1997).

================================================================================
                                        WARNINGS
                       Please study these warnings very carefully!
================================================================================

WARNING: Frozen-Core approximation turned on, but there are no core electrons.
  ===> : Turning off frozen-core approximation


================================================================================
                                       INPUT FILE
================================================================================
NAME = conf_004.inp
|  1> ! wb97x-3c mbis hirshfeld chelpg resp
|  2> %pal nprocs 4 end
|  3> %maxcore 4000
|  4> %method
|  5> 	   MBIS_LARGEPRINT TRUE
|  6> 	end
|  7> #conf_004
|  8> * xyzfile 0 1 conf_004.xyz
|  9> 
| 10>                          ****END OF INPUT****
================================================================================

                       ****************************
                       * Single Point Calculation *
                       ****************************

---------------------------------
CARTESIAN COORDINATES (ANGSTROEM)
---------------------------------
  C      8.306605    2.949887   -0.516169
  C      8.976424    1.615196   -0.218424
  C      8.434788    0.482492   -1.103964
  C      6.990353    0.211643   -0.815367
  C      6.624767   -0.508166    0.316106
  C      5.292204   -0.728191    0.596992
  F      4.985093   -1.417618    1.711217
  C      4.257210   -0.245530   -0.205644
  C      2.840310   -0.484626    0.108038
  C      2.409569   -1.750229    0.497058
  C      1.076533   -1.957318    0.790629
  F      0.684828   -3.189345    1.128355
  C      0.124523   -0.940952    0.702660
  C     -1.303039   -1.196908    1.056830
  O     -1.662115   -1.877479    1.975560
  O     -2.103141   -0.535502    0.202906
  C     -3.478043   -0.545360    0.291317
  C     -4.111574    0.571206   -0.243867
  C     -5.488563    0.632957   -0.229127
  F     -6.075068    1.715903   -0.773222
  C     -6.276472   -0.391016    0.298041
  C     -7.745625   -0.320619    0.306596
  C     -8.495000   -1.448412   -0.020137
  C     -9.874689   -1.390891   -0.008861
  F    -10.580541   -2.483522   -0.332635
  C    -10.543756   -0.220068    0.331719
  F    -11.881073   -0.172471    0.344284
  C     -9.785252    0.899026    0.658501
  F    -10.406152    2.036247    0.997550
  C     -8.404300    0.857854    0.646512
  C     -5.608087   -1.498648    0.814809
  C     -4.228697   -1.587836    0.818956
  C      0.588558    0.313697    0.308155
  F     -0.268299    1.341490    0.239775
  C      1.916078    0.553201    0.017025
  C      4.661251    0.476874   -1.328455
  F      3.723460    0.955426   -2.167763
  C      5.987068    0.702533   -1.640659
  H      8.454958    3.228412   -1.557107
  H      7.237836    2.896762   -0.321762
  H      8.729760    3.731625    0.109591
  H     10.051001    1.703466   -0.387700
  H      8.822080    1.356124    0.830615
  H      9.017392   -0.420783   -0.913760
  H      8.558582    0.758310   -2.151868
  H      7.371400   -0.905428    0.985642
  H      3.094661   -2.579373    0.569248
  H     -3.529421    1.375612   -0.663070
  H     -8.016467   -2.371104   -0.306198
  H     -7.860002    1.749188    0.912678
  H     -6.185882   -2.302429    1.243408
  H     -3.745735   -2.455173    1.236794
  H      2.215718    1.548242   -0.269843
  H      6.223983    1.261620   -2.532006

----------------------------
CARTESIAN COORDINATES (A.U.)
----------------------------
  NO LB      ZA    FRAG     MASS         X           Y           Z
   0 C     4.0000*   0    12.011   15.697208    5.574479   -0.975418
   1 C     4.0000*   0    12.011   16.962982    3.052278   -0.412762
   2 C     4.0000*   0    12.011   15.939439    0.911778   -2.086190
   3 C     4.0000*   0    12.011   13.209854    0.399948   -1.540821
   4 C     4.0000*   0    12.011   12.518994   -0.960295    0.597354
   5 C     4.0000*   0    12.011   10.000816   -1.376082    1.128150
   6 F     7.0000*   0    18.998    9.420461   -2.678910    3.233731
   7 C     4.0000*   0    12.011    8.044961   -0.463985   -0.388612
   8 C     4.0000*   0    12.011    5.367407   -0.915810    0.204162
   9 C     4.0000*   0    12.011    4.553425   -3.307453    0.939304
  10 C     4.0000*   0    12.011    2.034353   -3.698795    1.494071
  11 F     7.0000*   0    18.998    1.294138   -6.026989    2.132283
  12 C     4.0000*   0    12.011    0.235314   -1.778142    1.327836
  13 C     4.0000*   0    12.011   -2.462386   -2.261828    1.997120
  14 O     6.0000*   0    15.999   -3.140942   -3.547920    3.733267
  15 O     6.0000*   0    15.999   -3.974360   -1.011952    0.383437
  16 C     4.0000*   0    12.011   -6.572548   -1.030580    0.550509
  17 C     4.0000*   0    12.011   -7.769749    1.079423   -0.460842
  18 C     4.0000*   0    12.011  -10.371880    1.196115   -0.432987
  19 F     7.0000*   0    18.998  -11.480215    3.242586   -1.461177
  20 C     4.0000*   0    12.011  -11.860814   -0.738912    0.563216
  21 C     4.0000*   0    12.011  -14.637110   -0.605881    0.579383
  22 C     4.0000*   0    12.011  -16.053223   -2.737102   -0.038054
  23 C     4.0000*   0    12.011  -18.660458   -2.628402   -0.016745
  24 F     7.0000*   0    18.998  -19.994325   -4.693177   -0.628590
  25 C     4.0000*   0    12.011  -19.924811   -0.415869    0.626859
  26 F     7.0000*   0    18.998  -22.451973   -0.325922    0.650603
  27 C     4.0000*   0    12.011  -18.491447    1.698913    1.244387
  28 F     7.0000*   0    18.998  -19.664778    3.847950    1.885097
  29 C     4.0000*   0    12.011  -15.881826    1.621110    1.221730
  30 C     4.0000*   0    12.011  -10.597749   -2.832034    1.539767
  31 C     4.0000*   0    12.011   -7.991079   -3.000575    1.547603
  32 C     4.0000*   0    12.011    1.112214    0.592801    0.582329
  33 F     7.0000*   0    18.998   -0.507012    2.535048    0.453110
  34 C     4.0000*   0    12.011    3.620863    1.045399    0.032172
  35 C     4.0000*   0    12.011    8.808487    0.901161   -2.510416
  36 F     7.0000*   0    18.998    7.036320    1.805494   -4.096479
  37 C     4.0000*   0    12.011   11.313920    1.327595   -3.100396
  38 H     1.0000    0     1.008   15.977555    6.100815   -2.942505
  39 H     1.0000    0     1.008   13.677527    5.474087   -0.608042
  40 H     1.0000    0     1.008   16.496856    7.051749    0.207098
  41 H     1.0000    0     1.008   18.993638    3.219084   -0.732647
  42 H     1.0000    0     1.008   16.671316    2.562704    1.569635
  43 H     1.0000    0     1.008   17.040401   -0.795164   -1.726757
  44 H     1.0000    0     1.008   16.173376    1.432997   -4.066442
  45 H     1.0000    0     1.008   13.929928   -1.711011    1.862594
  46 H     1.0000    0     1.008    5.848062   -4.874308    1.075722
  47 H     1.0000    0     1.008   -6.669639    2.599531   -1.253020
  48 H     1.0000    0     1.008  -15.148928   -4.480737   -0.578631
  49 H     1.0000    0     1.008  -14.853251    3.305486    1.724712
  50 H     1.0000    0     1.008  -11.689622   -4.350961    2.349701
  51 H     1.0000    0     1.008   -7.078414   -4.639604    2.337201
  52 H     1.0000    0     1.008    4.187100    2.925754   -0.509930
  53 H     1.0000    0     1.008   11.761623    2.384116   -4.784798
* core charge reduced due to ECP

--------------------------------
INTERNAL COORDINATES (ANGSTROEM)
--------------------------------
 C      0   0   0     0.000000000000     0.00000000     0.00000000
 C      1   0   0     1.522731035978     0.00000000     0.00000000
 C      2   1   0     1.536413913140   112.23629113     0.00000000
 C      3   2   1     1.497677563263   111.23921029   295.03827798
 C      4   3   2     1.389968331411   120.27699024   282.72582390
 C      5   4   3     1.379503801642   120.15969039   178.41255277
 F      6   5   4     1.345780278333   118.08135737   180.72179299
 C      6   5   4     1.395850421004   122.95748858   359.37267381
 C      8   6   5     1.470771749814   122.37581549   180.17362881
 C      9   8   6     1.392345475181   120.35713652   315.09898107
 C     10   9   8     1.380598721598   119.63431996   179.86984682
 F     11  10   9     1.336182425456   118.36625069   178.32455620
 C     11  10   9     1.395371735636   122.41824695     0.55425702
 C     13  11  10     1.492943550304   120.83396144   181.32433849
 O     14  13  11     1.198405825893   124.45334013    39.34948063
 O     14  13  11     1.344175575701   109.51797906   218.50688873
 C     16  14  13     1.377776756293   123.34701407   181.71652195
 C     17  16  14     1.390864234217   115.09430938   153.57207652
 C     18  17  16     1.378451137626   119.13438881   178.43547427
 F     19  18  17     1.346402235119   117.83050906   181.03775780
 C     19  18  17     1.395431017877   122.35770326   359.61453485
 C     21  19  18     1.470863083330   122.07679082   180.20476500
 C     22  21  19     1.392923156535   119.81798097   137.87071473
 C     23  22  21     1.380933822548   120.12323995   179.73767998
 F     24  23  22     1.340485326189   119.35145485   179.65573983
 C     24  23  22     1.390852131633   121.17664467   359.68161497
 F     26  24  23     1.338222654109   120.86138687   180.19273985
 C     26  24  23     1.390858259413   118.19757103     0.19802080
 F     28  26  24     1.339307038337   119.33116305   180.38711434
 C     28  26  24     1.381617741181   121.26991980     0.05708281
 C     21  19  18     1.393067809230   116.91588973   359.84272018
 C     31  21  19     1.382276588086   122.08701397     0.40198807
 C     13  11  10     1.394671129198   116.49277910   359.56227343
 F     33  13  11     1.339865357093   119.45441538   181.83432657
 C     33  13  11     1.380010525471   122.40276078     0.00000000
 C      8   6   5     1.394926515590   115.28673391     0.33072547
 F     36   8   6     1.346440408673   118.95203461   178.77451136
 C     36   8   6     1.380646928569   123.01159537     0.25668371
 H      1   2   3     1.087720800969   110.58342402   301.11270104
 H      1   2   3     1.087604453555   110.76260304    61.45663726
 H      1   2   3     1.087083551294   110.27525359   181.38375808
 H      2   1   3     1.091403458107   109.38298730   120.48141926
 H      2   1   3     1.091523573751   109.49724867   238.53847562
 H      3   2   1     1.091563309723   108.75239635   174.53538759
 H      3   2   1     1.090643575829   109.10643423    56.44274277
 H      5   4   3     1.078683275443   120.92606496   358.23539561
 H     10   9   8     1.077980693220   121.41603685   359.48111520
 H     18  17  16     1.077823088857   120.18364068   358.39839743
 H     23  22  21     1.078046892271   121.09226195   358.37174447
 H     30  28  26     1.077766725386   118.55438924   180.34240480
 H     31  21  19     1.078706690315   118.87201042   179.11609610
 H     32  31  21     1.077085681990   120.03848664   179.33432217
 H     35  33  13     1.078046511487   118.92743271   180.81883003
 H     38  36   8     1.078520119061   118.85238570   179.35093611

---------------------------
INTERNAL COORDINATES (A.U.)
---------------------------
 C      0   0   0     0.000000000000     0.00000000     0.00000000
 C      1   0   0     2.877544633620     0.00000000     0.00000000
 C      2   1   0     2.903401524181   112.23629113     0.00000000
 C      3   2   1     2.830200431486   111.23921029   295.03827798
 C      4   3   2     2.626659481190   120.27699024   282.72582390
 C      5   4   3     2.606884385807   120.15969039   178.41255277
 F      6   5   4     2.543156162481   118.08135737   180.72179299
 C      6   5   4     2.637775019616   122.95748858   359.37267381
 C      8   6   5     2.779355812656   122.37581549   180.17362881
 C      9   8   6     2.631151631897   120.35713652   315.09898107
 C     10   9   8     2.608953484661   119.63431996   179.86984682
 F     11  10   9     2.525018849070   118.36625069   178.32455620
 C     11  10   9     2.636870435366   122.41824695     0.55425702
 C     13  11  10     2.821254443478   120.83396144   181.32433849
 O     14  13  11     2.264658808233   124.45334013    39.34948063
 O     14  13  11     2.540123713980   109.51797906   218.50688873
 C     16  14  13     2.603620743077   123.34701407   181.71652195
 C     17  16  14     2.628352492137   115.09430938   153.57207652
 C     18  17  16     2.604895139105   119.13438881   178.43547427
 F     19  18  17     2.544331490474   117.83050906   181.03775780
 C     19  18  17     2.636982462566   122.35770326   359.61453485
 C     21  19  18     2.779528407989   122.07679082   180.20476500
 C     22  21  19     2.632243291448   119.81798097   137.87071473
 C     23  22  21     2.609586733686   120.12323995   179.73767998
 F     24  23  22     2.533150153037   119.35145485   179.65573983
 C     24  23  22     2.628329621566   121.17664467   359.68161497
 F     26  24  23     2.528874322476   120.86138687   180.19273985
 C     26  24  23     2.628341201392   118.19757103     0.19802080
 F     28  26  24     2.530923511691   119.33116305   180.38711434
 C     28  26  24     2.610879152598   121.26991980     0.05708281
 C     21  19  18     2.632516645426   116.91588973   359.84272018
 C     31  21  19     2.612124192814   122.08701397     0.40198807
 C     13  11  10     2.635546481071   116.49277910   359.56227343
 F     33  13  11     2.531978581235   119.45441538   181.83432657
 C     33  13  11     2.607841955070   122.40276078     0.00000000
 C      8   6   5     2.636029091410   115.28673391     0.33072547
 F     36   8   6     2.544403628037   118.95203461   178.77451136
 C     36   8   6     2.609044582636   123.01159537     0.25668371
 H      1   2   3     2.055494424002   110.58342402   301.11270104
 H      1   2   3     2.055274559253   110.76260304    61.45663726
 H      1   2   3     2.054290196637   110.27525359   181.38375808
 H      2   1   3     2.062453637437   109.38298730   120.48141926
 H      2   1   3     2.062680623108   109.49724867   238.53847562
 H      3   2   1     2.062755713213   108.75239635   174.53538759
 H      3   2   1     2.061017668038   109.10643423    56.44274277
 H      5   4   3     2.038415975829   120.92606496   358.23539561
 H     10   9   8     2.037088287840   121.41603685   359.48111520
 H     18  17  16     2.036790458757   120.18364068   358.39839743
 H     23  22  21     2.037213385917   121.09226195   358.37174447
 H     30  28  26     2.036683947233   118.55438924   180.34240480
 H     31  21  19     2.038460223524   118.87201042   179.11609610
 H     32  31  21     2.035396961729   120.03848664   179.33432217
 H     35  33  13     2.037212666339   118.92743271   180.81883003
 H     38  36   8     2.038107654949   118.85238570   179.35093611

---------------------
BASIS SET INFORMATION
---------------------
There are 4 groups of distinct atoms

 Group   1 Type C   : 6s6p2d contracted to 2s2p1d pattern {42/42/2}
 Group   2 Type F   : 6s6p2d contracted to 2s2p1d pattern {42/42/2}
 Group   3 Type O   : 6s6p2d contracted to 2s2p1d pattern {42/42/2}
 Group   4 Type H   : 8s2p contracted to 2s1p pattern {53/2}

Atom   0C    basis set group =>   1
Atom   1C    basis set group =>   1
Atom   2C    basis set group =>   1
Atom   3C    basis set group =>   1
Atom   4C    basis set group =>   1
Atom   5C    basis set group =>   1
Atom   6F    basis set group =>   2
Atom   7C    basis set group =>   1
Atom   8C    basis set group =>   1
Atom   9C    basis set group =>   1
Atom  10C    basis set group =>   1
Atom  11F    basis set group =>   2
Atom  12C    basis set group =>   1
Atom  13C    basis set group =>   1
Atom  14O    basis set group =>   3
Atom  15O    basis set group =>   3
Atom  16C    basis set group =>   1
Atom  17C    basis set group =>   1
Atom  18C    basis set group =>   1
Atom  19F    basis set group =>   2
Atom  20C    basis set group =>   1
Atom  21C    basis set group =>   1
Atom  22C    basis set group =>   1
Atom  23C    basis set group =>   1
Atom  24F    basis set group =>   2
Atom  25C    basis set group =>   1
Atom  26F    basis set group =>   2
Atom  27C    basis set group =>   1
Atom  28F    basis set group =>   2
Atom  29C    basis set group =>   1
Atom  30C    basis set group =>   1
Atom  31C    basis set group =>   1
Atom  32C    basis set group =>   1
Atom  33F    basis set group =>   2
Atom  34C    basis set group =>   1
Atom  35C    basis set group =>   1
Atom  36F    basis set group =>   2
Atom  37C    basis set group =>   1
Atom  38H    basis set group =>   4
Atom  39H    basis set group =>   4
Atom  40H    basis set group =>   4
Atom  41H    basis set group =>   4
Atom  42H    basis set group =>   4
Atom  43H    basis set group =>   4
Atom  44H    basis set group =>   4
Atom  45H    basis set group =>   4
Atom  46H    basis set group =>   4
Atom  47H    basis set group =>   4
Atom  48H    basis set group =>   4
Atom  49H    basis set group =>   4
Atom  50H    basis set group =>   4
Atom  51H    basis set group =>   4
Atom  52H    basis set group =>   4
Atom  53H    basis set group =>   4
---------------------------------
AUXILIARY/J BASIS SET INFORMATION
---------------------------------
There are 4 groups of distinct atoms

 Group   1 Type C   : 12s5p4d2f1g contracted to 6s4p3d1f1g pattern {711111/2111/211/2/1}
 Group   2 Type F   : 12s5p4d2f1g contracted to 6s4p3d1f1g pattern {711111/2111/211/2/1}
 Group   3 Type O   : 12s5p4d2f1g contracted to 6s4p3d1f1g pattern {711111/2111/211/2/1}
 Group   4 Type H   : 5s2p1d contracted to 3s1p1d pattern {311/2/1}

Atom   0C    basis set group =>   1
Atom   1C    basis set group =>   1
Atom   2C    basis set group =>   1
Atom   3C    basis set group =>   1
Atom   4C    basis set group =>   1
Atom   5C    basis set group =>   1
Atom   6F    basis set group =>   2
Atom   7C    basis set group =>   1
Atom   8C    basis set group =>   1
Atom   9C    basis set group =>   1
Atom  10C    basis set group =>   1
Atom  11F    basis set group =>   2
Atom  12C    basis set group =>   1
Atom  13C    basis set group =>   1
Atom  14O    basis set group =>   3
Atom  15O    basis set group =>   3
Atom  16C    basis set group =>   1
Atom  17C    basis set group =>   1
Atom  18C    basis set group =>   1
Atom  19F    basis set group =>   2
Atom  20C    basis set group =>   1
Atom  21C    basis set group =>   1
Atom  22C    basis set group =>   1
Atom  23C    basis set group =>   1
Atom  24F    basis set group =>   2
Atom  25C    basis set group =>   1
Atom  26F    basis set group =>   2
Atom  27C    basis set group =>   1
Atom  28F    basis set group =>   2
Atom  29C    basis set group =>   1
Atom  30C    basis set group =>   1
Atom  31C    basis set group =>   1
Atom  32C    basis set group =>   1
Atom  33F    basis set group =>   2
Atom  34C    basis set group =>   1
Atom  35C    basis set group =>   1
Atom  36F    basis set group =>   2
Atom  37C    basis set group =>   1
Atom  38H    basis set group =>   4
Atom  39H    basis set group =>   4
Atom  40H    basis set group =>   4
Atom  41H    basis set group =>   4
Atom  42H    basis set group =>   4
Atom  43H    basis set group =>   4
Atom  44H    basis set group =>   4
Atom  45H    basis set group =>   4
Atom  46H    basis set group =>   4
Atom  47H    basis set group =>   4
Atom  48H    basis set group =>   4
Atom  49H    basis set group =>   4
Atom  50H    basis set group =>   4
Atom  51H    basis set group =>   4
Atom  52H    basis set group =>   4
Atom  53H    basis set group =>   4
-------------------------
ECP PARAMETER INFORMATION
-------------------------

 Group 1, Type C  ECP vDZP-ECP (replacing 2 core electrons, lmax=3)
 Group 2, Type F  ECP vDZP-ECP (replacing 2 core electrons, lmax=3)
 Group 3, Type O  ECP vDZP-ECP (replacing 2 core electrons, lmax=3)

Atom   0C    ECP group =>   1
Atom   1C    ECP group =>   1
Atom   2C    ECP group =>   1
Atom   3C    ECP group =>   1
Atom   4C    ECP group =>   1
Atom   5C    ECP group =>   1
Atom   6F    ECP group =>   2
Atom   7C    ECP group =>   1
Atom   8C    ECP group =>   1
Atom   9C    ECP group =>   1
Atom  10C    ECP group =>   1
Atom  11F    ECP group =>   2
Atom  12C    ECP group =>   1
Atom  13C    ECP group =>   1
Atom  14O    ECP group =>   3
Atom  15O    ECP group =>   3
Atom  16C    ECP group =>   1
Atom  17C    ECP group =>   1
Atom  18C    ECP group =>   1
Atom  19F    ECP group =>   2
Atom  20C    ECP group =>   1
Atom  21C    ECP group =>   1
Atom  22C    ECP group =>   1
Atom  23C    ECP group =>   1
Atom  24F    ECP group =>   2
Atom  25C    ECP group =>   1
Atom  26F    ECP group =>   2
Atom  27C    ECP group =>   1
Atom  28F    ECP group =>   2
Atom  29C    ECP group =>   1
Atom  30C    ECP group =>   1
Atom  31C    ECP group =>   1
Atom  32C    ECP group =>   1
Atom  33F    ECP group =>   2
Atom  34C    ECP group =>   1
Atom  35C    ECP group =>   1
Atom  36F    ECP group =>   2
Atom  37C    ECP group =>   1



           ************************************************************
           *        Program running with 4 parallel MPI-processes     *
           *              working on a common directory               *
           ************************************************************
------------------------------------------------------------------------------
                             ORCA STARTUP CALCULATIONS
                           -- RI-GTO INTEGRALS CHOSEN --
------------------------------------------------------------------------------
------------------------------------------------------------------------------
                   ___                                                        
                  /   \      - P O W E R E D   B Y -                         
                 /     \                                                     
                 |  |  |   _    _      __       _____    __    __             
                 |  |  |  | |  | |    /  \     |  _  \  |  |  /  |          
                  \  \/   | |  | |   /    \    | | | |  |  | /  /          
                 / \  \   | |__| |  /  /\  \   | |_| |  |  |/  /          
                |  |  |   |  __  | /  /__\  \  |    /   |      \           
                |  |  |   | |  | | |   __   |  |    \   |  |\   \          
                \     /   | |  | | |  |  |  |  | |\  \  |  | \   \       
                 \___/    |_|  |_| |__|  |__|  |_| \__\ |__|  \__/        
                                                                              
                      - O R C A' S   B I G   F R I E N D -                    
                                      &                                       
                       - I N T E G R A L  F E E D E R -                       
                                                                              
 v1 FN, 2020, v2 2021, v3 2022-2024                                           
------------------------------------------------------------------------------


----------------------
SHARK INTEGRAL PACKAGE
----------------------

Number of atoms                             ...     54
Number of basis functions                   ...    574
Number of shells                            ...    238
Maximum angular momentum                    ...      2
Integral batch strategy                     ... SHARK/LIBINT Hybrid
RI-J (if used) integral strategy            ... SPLIT-RIJ (Revised 2003 algorithm where possible)
Printlevel                                  ...      1
Contraction scheme used                     ... SEGMENTED contraction
Prescreening option                         ... SCHWARTZ
   Thresh                                   ... 1.000e-10
   Tcut                                     ... 1.000e-11
   Tpresel                                  ... 1.000e-11 
Coulomb Range Separation                    ... NOT USED
Exchange Range Separation                   ... Long Range
   Mu parameter                             ... 3.000e-01
   Scaling (regular/separated)              ... 1.670e-01 8.330e-01
Robust (split-)RI terms used:
  metric    (central integrals)             ... YES
  density   (r.h.s.  integrals)             ... YES
  potential (l.h.s.  integrals)             ... YES
Multipole approximations                    ... NOT USED
Finite Nucleus Model                        ... NOT USED
CABS basis                                  ... NOT available
Auxiliary Coulomb fitting basis             ... AVAILABLE
   # of basis functions in Aux-J            ...   2038
   # of shells in Aux-J                     ...    650
   Maximum angular momentum in Aux-J        ...      4
Auxiliary J/K fitting basis                 ... NOT available
Auxiliary Correlation fitting basis         ... NOT available
Auxiliary 'external' fitting basis          ... NOT available

done (  0.0 sec) Dimension = 238
   => SHARK Basis and OBASIS are compatible. Storing Pre-screening
Shell pair information
Shell pair cut-off parameter TPreSel        ...   1.0e-11
Total number of shell pairs                 ...     28441
Shell pairs after pre-screening             ...     18563
Total number of primitive shell pairs       ...    240572
Primitive shell pairs kept                  ...    102765
          la=0 lb=0:   3938 shell pairs
          la=1 lb=0:   6617 shell pairs
          la=1 lb=1:   2869 shell pairs
          la=2 lb=0:   2561 shell pairs
          la=2 lb=1:   2157 shell pairs
          la=2 lb=2:    421 shell pairs

Checking whether 4 symmetric matrices of dimension 574 fit in memory
:Max Core in MB      =   4000.00
 MB in use           =     37.14
 MB left             =   3962.86
 MB needed           =      5.04
 Data fit in memory  = YES
done (  0.2 sec)
Calculating Nuclear repulsion               ... done (  0.0 sec) ENN=   1935.199738346746 Eh

Diagonalization of the overlap matrix:
Smallest eigenvalue                        ... 2.261e-04
Time for diagonalization                   ...    0.042 sec
Threshold for overlap eigenvalues          ... 1.000e-07
Number of eigenvalues below threshold      ... 0
Time for construction of square roots      ...    0.023 sec
Total time needed                          ...    0.071 sec

-------------------
DFT GRID GENERATION
-------------------

General Integration Accuracy     IntAcc      ... 4.388
Radial Grid Type                 RadialGrid  ... OptM3 with GC (2021)
Angular Grid (max. ang.)         AngularGrid ... 4 (Lebedev-302)
Angular grid pruning method      GridPruning ... 4 (adaptive)
Weight generation scheme         WeightScheme... mBecke (2022)
Basis function cutoff            BFCut       ... 1.0000e-10
Integration weight cutoff        WCut        ... 1.0000e-14
Partially contracted basis set               ... off
Rotationally invariant grid construction     ... off
Angular grids for H and He will be reduced by one unit

Total number of grid points                  ...   278707
Total number of batches                      ...     4381
Average number of points per batch           ...       63
Average number of grid points per atom       ...     5161

--------------------
COSX GRID GENERATION
--------------------

GRIDX 1
-------
General Integration Accuracy     IntAcc      ... 3.816
Radial Grid Type                 RadialGrid  ... OptM3 with GC (2021)
Angular Grid (max. ang.)         AngularGrid ... 1 (Lebedev-50)
Angular grid pruning method      GridPruning ... 4 (adaptive)
Weight generation scheme         WeightScheme... mBecke (2022)
Basis function cutoff            BFCut       ... 1.0000e-10
Integration weight cutoff        WCut        ... 1.0000e-14
Partially contracted basis set               ... on
Rotationally invariant grid construction     ... off
Angular grids for H and He will be reduced by one unit

Total number of grid points                  ...    35255
Total number of batches                      ...      305
Average number of points per batch           ...      115
Average number of grid points per atom       ...      653
UseSFitting                                  ... on

GRIDX 2
-------
General Integration Accuracy     IntAcc      ... 4.020
Radial Grid Type                 RadialGrid  ... OptM3 with GC (2021)
Angular Grid (max. ang.)         AngularGrid ... 2 (Lebedev-110)
Angular grid pruning method      GridPruning ... 4 (adaptive)
Weight generation scheme         WeightScheme... mBecke (2022)
Basis function cutoff            BFCut       ... 1.0000e-10
Integration weight cutoff        WCut        ... 1.0000e-14
Partially contracted basis set               ... on
Rotationally invariant grid construction     ... off
Angular grids for H and He will be reduced by one unit

Total number of grid points                  ...    78967
Total number of batches                      ...      643
Average number of points per batch           ...      122
Average number of grid points per atom       ...     1462
UseSFitting                                  ... on

GRIDX 3
-------
General Integration Accuracy     IntAcc      ... 4.338
Radial Grid Type                 RadialGrid  ... OptM3 with GC (2021)
Angular Grid (max. ang.)         AngularGrid ... 3 (Lebedev-194)
Angular grid pruning method      GridPruning ... 4 (adaptive)
Weight generation scheme         WeightScheme... mBecke (2022)
Basis function cutoff            BFCut       ... 1.0000e-10
Integration weight cutoff        WCut        ... 1.0000e-14
Partially contracted basis set               ... on
Rotationally invariant grid construction     ... off
Angular grids for H and He will be reduced by one unit

Total number of grid points                  ...   173460
Total number of batches                      ...     1378
Average number of points per batch           ...      125
Average number of grid points per atom       ...     3212
UseSFitting                                  ... on
Grids setup in   5.0 sec
Initializing property integral containers    ... done (  0.0 sec)

SHARK setup successfully completed in   7.2 seconds

Maximum memory used throughout the entire STARTUP-calculation: 101.5 MB


           ************************************************************
           *        Program running with 4 parallel MPI-processes     *
           *              working on a common directory               *
           ************************************************************
-------------------------------------------------------------------------------
                                 ORCA GUESS
                   Start orbitals & Density for SCF / CASSCF
-------------------------------------------------------------------------------

------------
SCF SETTINGS
------------
Hamiltonian:
 Density Functional     Method          .... DFT(GTOs)
 Exchange Functional    Exchange        .... WB97X-V
 Correlation Functional Correlation     .... WB97X-V
 Gradients option       PostSCFGGA      .... off
 Hybrid DFT is turned on
   Fraction HF Exchange ScalHFX         ....  0.167000
   Scaling of DF-GGA-X  ScalDFX         ....  0.000000
   Scaling of DF-GGA-C  ScalDFC         ....  1.000000
   Scaling of DF-LDA-C  ScalLDAC        ....  1.000000
   Perturbative correction              ....  0.000000
 Long-range corrected/Screened/Range-Separated Hybrid DFT is turned on
   Amount of maximum screened exact exchange              ....  0.833000
   Range separation parameter mu (erf(mu*r12)/r12)        ....  0.300000
   NL short-range parameter             ....  6.000000
   NL long-range parameter              ....  0.010000
 RI-approximation to the Coulomb term is turned on
   Number of AuxJ basis functions       .... 2038
   RIJ-COSX (HFX calculated with COS-X)).... on


General Settings:
 Integral files         IntName         .... conf_004
 Hartree-Fock type      HFTyp           .... RHF
 Total Charge           Charge          ....    0
 Multiplicity           Mult            ....    1
 Number of Electrons    NEL             ....  196
 Basis Dimension        Dim             ....  574
 Nuclear Repulsion      ENuc            ....   1935.1997383467 Eh

Convergence Acceleration:
 AO-DIIS                CNVDIIS         .... on
   Start iteration      DIISMaxIt       ....    12
   Startup error        DIISStart       ....  0.200000
   # of expansion vecs  DIISMaxEq       ....     5
   Bias factor          DIISBfac        ....   1.050
   Max. coefficient     DIISMaxC        ....  10.000
 MO-DIIS                CNVKDIIS        .... off
 Trust-Rad. Augm. Hess. CNVTRAH         .... auto
   Auto Start mean grad. ratio tolernc. ....  1.125000
   Auto Start start iteration           ....    50
   Auto Start num. interpolation iter.  ....    10
   Max. Number of Micro iterations      ....    24
   Max. Number of Macro iterations      .... Maxiter - #DIIS iter
   Number of Davidson start vectors     ....     2
   Converg. threshold    (grad. norm)   ....   5.000e-05
   Grad. Scal. Fac. for Micro threshold ....   0.100
   Minimum threshold for Micro iter.    ....   1.000e-02
   NR start threshold (gradient norm)   ....   1.000e-04
   Initial trust radius                 ....   0.400
   Minimum AH scaling param. (alpha)    ....   1.000
   Maximum AH scaling param. (alpha)    .... 1000.000
   Quad. conv. algorithm                .... NR
   White noise on init. David. guess    .... on
   Maximum white noise                  ....   0.010
   Pseudo random numbers                .... off
   Inactive MOs                         .... canonical
   Orbital update algorithm             .... Taylor
   Preconditioner                       .... Diag
   Full preconditioner red. dimension   ....   250
 SOSCF                 CNVSOSCF           .... on
   Start iteration     SOSCFMaxIt         ....   150
   Startup grad/error  SOSCFStart         ....  0.003300
   Hessian update      SOSCFHessUp        .... L-BFGS
   Autom. constraints  SOSCFAutoConstrain .... off
 Level Shifting         CNVShift        .... on
   Level shift para.    LevelShift      ....    0.2500
   Turn off err/grad.   ShiftErr        ....    0.0010
 Zerner damping         CNVZerner       .... off
 Static damping         CNVDamp         .... on
   Fraction old density DampFac         ....    0.7000
   Max. Damping (<1)    DampMax         ....    0.9800
   Min. Damping (>=0)   DampMin         ....    0.0000
   Turn off err/grad.   DampErr         ....    0.1000

SCF Procedure:
 Maximum # iterations   MaxIter         ....   125
 SCF integral mode      SCFMode         .... Direct
   Integral package                     .... SHARK and LIBINT hybrid scheme
 Reset frequency        DirectResetFreq ....    20
 Integral Threshold     Thresh          ....  1.000e-10 Eh
 Primitive CutOff       TCut            ....  1.000e-11 Eh

Convergence Tolerance:
 Convergence Check Mode ConvCheckMode   .... Total+1el-Energy
 Convergence forced     ConvForced      .... 0
 Energy Change          TolE            ....  1.000e-06 Eh
 1-El. energy change                    ....  1.000e-03 Eh
 Orbital Gradient       TolG            ....  5.000e-05
 Orbital Rotation angle TolX            ....  5.000e-05
 DIIS Error             TolErr          ....  1.000e-06

------------------------------
INITIAL GUESS: MODEL POTENTIAL
------------------------------
Loading Hartree-Fock densities                     ... done
Atomic calculation to generate a density for atom 0 (C  with ECP)
  Multiplicity assumed   :    1
  Atomic configuration   : 1s2 2s2 2p2 
  Number of open shells  : 1
  Command: /opt/apps/pkg/applications/orca/orca_6_1_0_linux_x86-64_shared_openmpi418/orca conf_004_atom6.inp "" > conf_004_atom6.out
Returned from the atomic calculation with res=0
Atomic calculation to generate a density for atom 6 (F  with ECP)
  Multiplicity assumed   :    2
  Atomic configuration   : 1s2 2s2 2p5 
  Number of open shells  : 1
  Command: /opt/apps/pkg/applications/orca/orca_6_1_0_linux_x86-64_shared_openmpi418/orca conf_004_atom9.inp "" > conf_004_atom9.out
Returned from the atomic calculation with res=0
Atomic calculation to generate a density for atom 14 (O  with ECP)
  Multiplicity assumed   :    3
  Atomic configuration   : 1s2 2s2 2p4 
  Number of open shells  : 1
  Command: /opt/apps/pkg/applications/orca/orca_6_1_0_linux_x86-64_shared_openmpi418/orca conf_004_atom8.inp "" > conf_004_atom8.out
Returned from the atomic calculation with res=0
Calculating cut-offs                               ... done
Initializing the effective Hamiltonian             ... done
Setting up the integral package (SHARK)            ... done
done (   1.4 sec)
done (   0.7 sec)
Mapping shells                                     ... done
Starting the XC term evaluation                    ... done (   0.4 sec)
  promolecular density results
     # of electrons  =    271.990007095
     EX              =   -168.150731945
     EC              =    -11.745937169
     EX+EC           =   -179.896669114
Transforming the Hamiltonian                       ... done (   0.0 sec)
done (   0.1 sec)
Back transforming the eigenvectors                 ... done (   0.0 sec)
done
                      ------------------
                      INITIAL GUESS DONE (   4.6 sec)
                      ------------------
             **** ENERGY FILE WAS UPDATED (conf_004.en.tmp) ****
Finished Guess after   6.1 sec
Maximum memory used throughout the entire GUESS-calculation: 55.9 MB


           ************************************************************
           *        Program running with 4 parallel MPI-processes     *
           *              working on a common directory               *
           ************************************************************

-------------------------------------------------------------------------------------------
                                      ORCA LEAN-SCF
                              memory conserving SCF solver
-------------------------------------------------------------------------------------------

----------------------------------------D-I-I-S--------------------------------------------
Iteration    Energy (Eh)           Delta-E    RMSDP     MaxDP     DIISErr   Damp  Time(sec)
-------------------------------------------------------------------------------------------
               ***  Starting incremental Fock matrix formation  ***
    1    -394.3718450957173900     0.00e+00  5.83e-03  9.45e-02  2.26e-01  0.700  61.6
    2    -394.9440637880209124    -5.72e-01  4.22e-03  6.72e-02  1.12e-01  0.700  24.7
                               ***Turning on AO-DIIS***
    3    -395.2088288986403768    -2.65e-01  2.44e-03  3.46e-02  5.79e-02  0.700  23.7
    4    -395.3660304322722823    -1.57e-01  5.37e-03  7.38e-02  3.49e-02  0.000  22.3
    5    -395.7086366746250405    -3.43e-01  4.52e-04  6.96e-03  6.60e-03  0.000  24.5
    6    -395.7104560663358370    -1.82e-03  2.34e-04  4.86e-03  3.47e-03  0.000  20.0
                              *** Initializing SOSCF ***
---------------------------------------S-O-S-C-F--------------------------------------
Iteration    Energy (Eh)           Delta-E    RMSDP     MaxDP     MaxGrad    Time(sec)
--------------------------------------------------------------------------------------
    7    -395.7109611189227962    -5.05e-04  1.21e-04  2.82e-03  2.08e-03    18.6
               *** Restarting incremental Fock matrix formation ***
    8    -395.7110253499797636    -6.42e-05  7.94e-05  1.81e-03  1.23e-03    60.4
    9    -395.7110769661173890    -5.16e-05  9.47e-05  2.25e-03  6.04e-04    38.0
   10    -395.7110906285004148    -1.37e-05  3.02e-05  1.25e-03  2.00e-04    38.0
   11    -395.7110966174084297    -5.99e-06  1.07e-05  2.66e-04  4.90e-05    33.3
   12    -395.7110967940195678    -1.77e-07  4.88e-06  9.41e-05  4.51e-05    25.7
                 **** Energy Check signals convergence ****

               *****************************************************
               *                     SUCCESS                       *
               *           SCF CONVERGED AFTER  12 CYCLES          *
               *****************************************************

 done (  113.326 sec)
Old exchange energy                            :    -40.323208610 Eh
New exchange energy                            :    -40.323210382 Eh
Exchange energy change after final integration :     -0.000001772 Eh
Total energy after final integration           :   -395.711098842 Eh
             **** ENERGY FILE WAS UPDATED (conf_004.en.tmp) ****

----------------
TOTAL SCF ENERGY
----------------

Total Energy       :       -395.71109884227315 Eh          -10767.84643 eV

Components:
Nuclear Repulsion  :       1935.19973834674579 Eh           52659.46204 eV
Electronic Energy  :      -2330.91083541690523 Eh          -63427.30841 eV
One Electron Energy:      -4486.45257782430599 Eh         -122082.58120 eV
Two Electron Energy:       2155.54174240740076 Eh           58655.27279 eV

Virial components:
Potential Energy   :       -709.37821160310784 Eh          -19303.16249 eV
Kinetic Energy     :        313.66711276083470 Eh            8535.31607 eV
Virial Ratio       :          2.26156387693725

DFT components:
N(Alpha)           :       98.000017487151 electrons
N(Beta)            :       98.000017487151 electrons
N(Total)           :      196.000034974302 electrons
E(X)               :      -51.262436040069 Eh       
E(C)               :       -7.928877485551 Eh       
E(XC)              :      -59.191313525620 Eh       

---------------
SCF CONVERGENCE
---------------

  Last Energy change         ...    1.7661e-07  Tolerance :   1.0000e-06
  Last MAX-Density change    ...    9.4052e-05  Tolerance :   1.0000e-05
  Last RMS-Density change    ...    4.8798e-06  Tolerance :   1.0000e-06
  Last DIIS Error            ...    2.0771e-03  Tolerance :   1.0000e-06
  Last Orbital Gradient      ...    4.5076e-05  Tolerance :   5.0000e-05
  Last Orbital Rotation      ...    1.7835e-04  Tolerance :   5.0000e-05


----------------
ORBITAL ENERGIES
----------------

  NO   OCC          E(Eh)            E(eV) 
   0   2.0000      -1.387496       -37.7557 
   1   2.0000      -1.382635       -37.6234 
   2   2.0000      -1.380424       -37.5633 
   3   2.0000      -1.380067       -37.5535 
   4   2.0000      -1.379656       -37.5423 
   5   2.0000      -1.376442       -37.4549 
   6   2.0000      -1.372459       -37.3465 
   7   2.0000      -1.367137       -37.2017 
   8   2.0000      -1.278492       -34.7895 
   9   2.0000      -1.184076       -32.2203 
  10   2.0000      -1.060454       -28.8564 
  11   2.0000      -1.052945       -28.6521 
  12   2.0000      -1.042217       -28.3602 
  13   2.0000      -1.030483       -28.0409 
  14   2.0000      -0.986012       -26.8308 
  15   2.0000      -0.963297       -26.2126 
  16   2.0000      -0.949314       -25.8322 
  17   2.0000      -0.922373       -25.0990 
  18   2.0000      -0.921353       -25.0713 
  19   2.0000      -0.917624       -24.9698 
  20   2.0000      -0.917029       -24.9536 
  21   2.0000      -0.915758       -24.9190 
  22   2.0000      -0.897897       -24.4330 
  23   2.0000      -0.856840       -23.3158 
  24   2.0000      -0.834873       -22.7180 
  25   2.0000      -0.801623       -21.8133 
  26   2.0000      -0.797471       -21.7003 
  27   2.0000      -0.794481       -21.6189 
  28   2.0000      -0.779389       -21.2083 
  29   2.0000      -0.777343       -21.1526 
  30   2.0000      -0.773015       -21.0348 
  31   2.0000      -0.764091       -20.7920 
  32   2.0000      -0.736898       -20.0520 
  33   2.0000      -0.734060       -19.9748 
  34   2.0000      -0.713485       -19.4149 
  35   2.0000      -0.710226       -19.3262 
  36   2.0000      -0.692211       -18.8360 
  37   2.0000      -0.690664       -18.7939 
  38   2.0000      -0.687587       -18.7102 
  39   2.0000      -0.684513       -18.6266 
  40   2.0000      -0.678682       -18.4679 
  41   2.0000      -0.669274       -18.2119 
  42   2.0000      -0.654528       -17.8106 
  43   2.0000      -0.643447       -17.5091 
  44   2.0000      -0.641903       -17.4671 
  45   2.0000      -0.640364       -17.4252 
  46   2.0000      -0.639528       -17.4025 
  47   2.0000      -0.637987       -17.3605 
  48   2.0000      -0.634971       -17.2785 
  49   2.0000      -0.632582       -17.2134 
  50   2.0000      -0.627377       -17.0718 
  51   2.0000      -0.619177       -16.8486 
  52   2.0000      -0.616160       -16.7666 
  53   2.0000      -0.613764       -16.7014 
  54   2.0000      -0.611499       -16.6397 
  55   2.0000      -0.608993       -16.5715 
  56   2.0000      -0.606137       -16.4938 
  57   2.0000      -0.604875       -16.4595 
  58   2.0000      -0.601131       -16.3576 
  59   2.0000      -0.596662       -16.2360 
  60   2.0000      -0.590021       -16.0553 
  61   2.0000      -0.588443       -16.0123 
  62   2.0000      -0.585633       -15.9359 
  63   2.0000      -0.580354       -15.7922 
  64   2.0000      -0.575083       -15.6488 
  65   2.0000      -0.567885       -15.4529 
  66   2.0000      -0.564618       -15.3640 
  67   2.0000      -0.558778       -15.2051 
  68   2.0000      -0.544051       -14.8044 
  69   2.0000      -0.539580       -14.6827 
  70   2.0000      -0.538113       -14.6428 
  71   2.0000      -0.534148       -14.5349 
  72   2.0000      -0.528271       -14.3750 
  73   2.0000      -0.523203       -14.2371 
  74   2.0000      -0.519440       -14.1347 
  75   2.0000      -0.515549       -14.0288 
  76   2.0000      -0.513259       -13.9665 
  77   2.0000      -0.510890       -13.9020 
  78   2.0000      -0.501825       -13.6554 
  79   2.0000      -0.500006       -13.6059 
  80   2.0000      -0.498668       -13.5694 
  81   2.0000      -0.495647       -13.4872 
  82   2.0000      -0.492396       -13.3988 
  83   2.0000      -0.490593       -13.3497 
  84   2.0000      -0.480984       -13.0883 
  85   2.0000      -0.465334       -12.6624 
  86   2.0000      -0.463340       -12.6081 
  87   2.0000      -0.462230       -12.5779 
  88   2.0000      -0.456932       -12.4338 
  89   2.0000      -0.422438       -11.4951 
  90   2.0000      -0.401715       -10.9312 
  91   2.0000      -0.388368       -10.5680 
  92   2.0000      -0.370883       -10.0923 
  93   2.0000      -0.370024       -10.0689 
  94   2.0000      -0.369480       -10.0541 
  95   2.0000      -0.368190       -10.0190 
  96   2.0000      -0.352086        -9.5807 
  97   2.0000      -0.336423        -9.1545 
  98   0.0000      -0.011085        -0.3016 
  99   0.0000       0.016207         0.4410 
 100   0.0000       0.045115         1.2276 
 101   0.0000       0.046759         1.2724 
 102   0.0000       0.047869         1.3026 
 103   0.0000       0.048931         1.3315 
 104   0.0000       0.049504         1.3471 
 105   0.0000       0.074079         2.0158 
 106   0.0000       0.077416         2.1066 
 107   0.0000       0.084795         2.3074 
 108   0.0000       0.085043         2.3141 
*Only the first 10 virtual orbitals were printed.

                    ********************************
                    * MULLIKEN POPULATION ANALYSIS *
                    ********************************

-----------------------
MULLIKEN ATOMIC CHARGES
-----------------------
   0 C :   -0.058960
   1 C :   -0.065673
   2 C :   -0.046777
   3 C :   -0.041378
   4 C :    0.036347
   5 C :    0.200984
   6 F :   -0.226897
   7 C :   -0.131953
   8 C :   -0.084279
   9 C :    0.065609
  10 C :    0.226092
  11 F :   -0.205594
  12 C :   -0.155694
  13 C :    0.284139
  14 O :   -0.278825
  15 O :   -0.223417
  16 C :    0.062462
  17 C :    0.054368
  18 C :    0.189622
  19 F :   -0.230536
  20 C :   -0.109581
  21 C :   -0.078428
  22 C :    0.025937
  23 C :    0.174147
  24 F :   -0.217054
  25 C :    0.193342
  26 F :   -0.209599
  27 C :    0.170572
  28 F :   -0.214970
  29 C :    0.061167
  30 C :    0.034192
  31 C :    0.040483
  32 C :    0.241875
  33 F :   -0.215939
  34 C :    0.070221
  35 C :    0.200486
  36 F :   -0.227594
  37 C :    0.027277
  38 H :    0.027442
  39 H :    0.041720
  40 H :    0.036892
  41 H :    0.037931
  42 H :    0.037833
  43 H :    0.051175
  44 H :    0.039191
  45 H :    0.032740
  46 H :    0.049726
  47 H :    0.041837
  48 H :    0.043797
  49 H :    0.048138
  50 H :    0.038688
  51 H :    0.055151
  52 H :    0.047377
  53 H :    0.034187
Sum of atomic charges:    0.0000000

--------------------------------
MULLIKEN REDUCED ORBITAL CHARGES
--------------------------------
  0 C s       :     0.936468  s :     0.936468
      pz      :     1.041989  p :     3.048746
      px      :     1.033724
      py      :     0.973033
      dz2     :     0.017822  d :     0.073746
      dxz     :     0.004891
      dyz     :     0.017678
      dx2y2   :     0.021157
      dxy     :     0.012199

  1 C s       :     0.998092  s :     0.998092
      pz      :     1.013931  p :     2.966026
      px      :     1.024538
      py      :     0.927556
      dz2     :     0.027516  d :     0.101556
      dxz     :     0.006369
      dyz     :     0.020969
      dx2y2   :     0.029478
      dxy     :     0.017224

  2 C s       :     0.964913  s :     0.964913
      pz      :     1.033486  p :     2.982044
      px      :     0.935675
      py      :     1.012884
      dz2     :     0.028039  d :     0.099819
      dxz     :     0.013404
      dyz     :     0.012116
      dx2y2   :     0.021046
      dxy     :     0.025215

  3 C s       :     1.042331  s :     1.042331
      pz      :     0.958236  p :     2.870452
      px      :     0.974037
      py      :     0.938180
      dz2     :     0.030228  d :     0.128595
      dxz     :     0.032764
      dyz     :     0.015459
      dx2y2   :     0.022899
      dxy     :     0.027245

  4 C s       :     0.960653  s :     0.960653
      pz      :     0.968168  p :     2.916149
      px      :     0.938604
      py      :     1.009377
      dz2     :     0.017025  d :     0.086852
      dxz     :     0.026222
      dyz     :     0.009982
      dx2y2   :     0.014333
      dxy     :     0.019289

  5 C s       :     1.059570  s :     1.059570
      pz      :     0.724061  p :     2.554069
      px      :     0.967052
      py      :     0.862956
      dz2     :     0.044621  d :     0.185377
      dxz     :     0.049524
      dyz     :     0.026662
      dx2y2   :     0.027346
      dxy     :     0.037224

  6 F s       :     1.886309  s :     1.886309
      pz      :     1.593976  p :     5.316938
      px      :     1.928148
      py      :     1.794814
      dz2     :     0.007555  d :     0.023650
      dxz     :     0.004409
      dyz     :     0.007400
      dx2y2   :     0.002368
      dxy     :     0.001918

  7 C s       :     0.990082  s :     0.990082
      pz      :     1.012882  p :     3.030864
      px      :     0.971170
      py      :     1.046811
      dz2     :     0.023657  d :     0.111008
      dxz     :     0.030952
      dyz     :     0.012418
      dx2y2   :     0.020225
      dxy     :     0.023756

  8 C s       :     1.015334  s :     1.015334
      pz      :     0.945927  p :     2.938363
      px      :     0.976512
      py      :     1.015924
      dz2     :     0.010357  d :     0.130583
      dxz     :     0.020898
      dyz     :     0.024499
      dx2y2   :     0.037655
      dxy     :     0.037173

  9 C s       :     0.970309  s :     0.970309
      pz      :     0.984538  p :     2.877233
      px      :     0.927454
      py      :     0.965242
      dz2     :     0.008397  d :     0.086849
      dxz     :     0.016108
      dyz     :     0.011580
      dx2y2   :     0.024135
      dxy     :     0.026629

 10 C s       :     1.064828  s :     1.064828
      pz      :     0.875349  p :     2.519674
      px      :     0.937291
      py      :     0.707034
      dz2     :     0.014479  d :     0.189407
      dxz     :     0.029873
      dyz     :     0.037055
      dx2y2   :     0.052195
      dxy     :     0.055805

 11 F s       :     1.884444  s :     1.884444
      pz      :     1.875616  p :     5.296895
      px      :     1.907670
      py      :     1.513609
      dz2     :     0.003166  d :     0.024256
      dxz     :     0.001128
      dyz     :     0.006858
      dx2y2   :     0.007049
      dxy     :     0.006056

 12 C s       :     1.011282  s :     1.011282
      pz      :     1.113519  p :     3.045453
      px      :     0.924568
      py      :     1.007366
      dz2     :     0.009403  d :     0.098959
      dxz     :     0.015983
      dyz     :     0.020132
      dx2y2   :     0.025867
      dxy     :     0.027573

 13 C s       :     1.079043  s :     1.079043
      pz      :     0.713129  p :     2.356902
      px      :     0.872236
      py      :     0.771536
      dz2     :     0.070317  d :     0.279916
      dxz     :     0.075693
      dyz     :     0.036417
      dx2y2   :     0.049750
      dxy     :     0.047738

 14 O s       :     1.761630  s :     1.761630
      pz      :     1.346720  p :     4.478414
      px      :     1.746805
      py      :     1.384889
      dz2     :     0.012873  d :     0.038781
      dxz     :     0.006563
      dyz     :     0.009819
      dx2y2   :     0.005382
      dxy     :     0.004145

 15 O s       :     1.651728  s :     1.651728
      pz      :     1.605324  p :     4.528887
      px      :     1.241795
      py      :     1.681768
      dz2     :     0.007792  d :     0.042802
      dxz     :     0.011159
      dyz     :     0.005908
      dx2y2   :     0.009696
      dxy     :     0.008247

 16 C s       :     1.041909  s :     1.041909
      pz      :     0.993343  p :     2.724575
      px      :     0.707653
      py      :     1.023579
      dz2     :     0.019214  d :     0.171054
      dxz     :     0.036450
      dyz     :     0.018403
      dx2y2   :     0.047972
      dxy     :     0.049016

 17 C s       :     0.975178  s :     0.975178
      pz      :     0.998115  p :     2.887399
      px      :     0.926388
      py      :     0.962896
      dz2     :     0.008641  d :     0.083055
      dxz     :     0.019564
      dyz     :     0.010816
      dx2y2   :     0.021407
      dxy     :     0.022627

 18 C s       :     1.055932  s :     1.055932
      pz      :     0.892934  p :     2.570432
      px      :     0.910296
      py      :     0.767202
      dz2     :     0.022407  d :     0.184014
      dxz     :     0.035046
      dyz     :     0.027969
      dx2y2   :     0.049210
      dxy     :     0.049381

 19 F s       :     1.886119  s :     1.886119
      pz      :     1.836633  p :     5.320856
      px      :     1.860277
      py      :     1.623946
      dz2     :     0.003585  d :     0.023560
      dxz     :     0.002661
      dyz     :     0.005921
      dx2y2   :     0.005520
      dxy     :     0.005873

 20 C s       :     0.993459  s :     0.993459
      pz      :     1.032942  p :     2.997718
      px      :     0.971944
      py      :     0.992832
      dz2     :     0.014304  d :     0.118404
      dxz     :     0.025444
      dyz     :     0.015385
      dx2y2   :     0.030970
      dxy     :     0.032301

 21 C s       :     0.999280  s :     0.999280
      pz      :     0.980455  p :     2.950819
      px      :     0.984423
      py      :     0.985942
      dz2     :     0.010391  d :     0.128328
      dxz     :     0.023410
      dyz     :     0.022434
      dx2y2   :     0.038005
      dxy     :     0.034088

 22 C s       :     0.968917  s :     0.968917
      pz      :     1.019647  p :     2.916258
      px      :     0.921865
      py      :     0.974745
      dz2     :     0.006455  d :     0.088889
      dxz     :     0.020989
      dyz     :     0.010614
      dx2y2   :     0.028045
      dxy     :     0.022787

 23 C s       :     1.058053  s :     1.058053
      pz      :     0.942369  p :     2.584901
      px      :     0.891977
      py      :     0.750555
      dz2     :     0.014457  d :     0.182899
      dxz     :     0.032600
      dyz     :     0.033820
      dx2y2   :     0.051031
      dxy     :     0.050991

 24 F s       :     1.888225  s :     1.888225
      pz      :     1.883874  p :     5.304967
      px      :     1.813175
      py      :     1.607917
      dz2     :     0.003024  d :     0.023862
      dxz     :     0.002562
      dyz     :     0.005230
      dx2y2   :     0.005695
      dxy     :     0.007350

 25 C s       :     1.045722  s :     1.045722
      pz      :     1.008652  p :     2.585768
      px      :     0.643613
      py      :     0.933503
      dz2     :     0.012401  d :     0.175168
      dxz     :     0.045394
      dyz     :     0.019476
      dx2y2   :     0.040004
      dxy     :     0.057893

 26 F s       :     1.889071  s :     1.889071
      pz      :     1.914046  p :     5.296103
      px      :     1.436241
      py      :     1.945816
      dz2     :     0.002771  d :     0.024424
      dxz     :     0.007309
      dyz     :     0.000060
      dx2y2   :     0.008611
      dxy     :     0.005674

 27 C s       :     1.058131  s :     1.058131
      pz      :     0.944429  p :     2.587905
      px      :     0.912215
      py      :     0.731261
      dz2     :     0.014583  d :     0.183392
      dxz     :     0.032065
      dyz     :     0.034520
      dx2y2   :     0.049103
      dxy     :     0.053122

 28 F s       :     1.887900  s :     1.887900
      pz      :     1.879965  p :     5.303156
      px      :     1.844447
      py      :     1.578745
      dz2     :     0.003063  d :     0.023914
      dxz     :     0.002115
      dyz     :     0.005740
      dx2y2   :     0.006053
      dxy     :     0.006944

 29 C s       :     0.974048  s :     0.974048
      pz      :     0.987491  p :     2.876026
      px      :     0.911803
      py      :     0.976732
      dz2     :     0.006476  d :     0.088759
      dxz     :     0.020118
      dyz     :     0.011575
      dx2y2   :     0.026955
      dxy     :     0.023634

 30 C s       :     0.985322  s :     0.985322
      pz      :     0.962002  p :     2.882486
      px      :     0.967594
      py      :     0.952890
      dz2     :     0.008825  d :     0.097999
      dxz     :     0.023396
      dyz     :     0.010979
      dx2y2   :     0.022779
      dxy     :     0.032020

 31 C s       :     0.970509  s :     0.970509
      pz      :     0.959553  p :     2.898670
      px      :     0.950341
      py      :     0.988776
      dz2     :     0.008501  d :     0.090338
      dxz     :     0.021140
      dyz     :     0.009801
      dx2y2   :     0.021549
      dxy     :     0.029348

 32 C s       :     1.058145  s :     1.058145
      pz      :     0.894680  p :     2.511733
      px      :     0.829176
      py      :     0.787878
      dz2     :     0.013682  d :     0.188247
      dxz     :     0.032993
      dyz     :     0.033775
      dx2y2   :     0.056458
      dxy     :     0.051338

 33 F s       :     1.884695  s :     1.884695
      pz      :     1.909666  p :     5.307264
      px      :     1.748448
      py      :     1.649150
      dz2     :     0.002762  d :     0.023980
      dxz     :     0.003022
      dyz     :     0.004145
      dx2y2   :     0.005691
      dxy     :     0.008361

 34 C s       :     0.969552  s :     0.969552
      pz      :     0.994961  p :     2.873249
      px      :     0.890377
      py      :     0.987910
      dz2     :     0.006553  d :     0.086978
      dxz     :     0.018982
      dyz     :     0.010440
      dx2y2   :     0.030176
      dxy     :     0.020825

 35 C s       :     1.059164  s :     1.059164
      pz      :     0.830136  p :     2.555431
      px      :     0.817272
      py      :     0.908023
      dz2     :     0.043372  d :     0.184920
      dxz     :     0.046850
      dyz     :     0.023087
      dx2y2   :     0.032707
      dxy     :     0.038904

 36 F s       :     1.886220  s :     1.886220
      pz      :     1.742592  p :     5.317782
      px      :     1.714198
      py      :     1.860992
      dz2     :     0.004428  d :     0.023592
      dxz     :     0.007290
      dyz     :     0.003540
      dx2y2   :     0.003713
      dxy     :     0.004622

 37 C s       :     0.961457  s :     0.961457
      pz      :     1.010417  p :     2.924023
      px      :     0.915541
      py      :     0.998065
      dz2     :     0.018041  d :     0.087243
      dxz     :     0.020530
      dyz     :     0.011395
      dx2y2   :     0.017035
      dxy     :     0.020242

 38 H s       :     0.927853  s :     0.927853
      pz      :     0.022088  p :     0.044704
      px      :     0.011147
      py      :     0.011469

 39 H s       :     0.912175  s :     0.912175
      pz      :     0.011076  p :     0.046105
      px      :     0.023945
      py      :     0.011084

 40 H s       :     0.917971  s :     0.917971
      pz      :     0.014602  p :     0.045137
      px      :     0.012636
      py      :     0.017899

 41 H s       :     0.918458  s :     0.918458
      pz      :     0.010153  p :     0.043611
      px      :     0.022611
      py      :     0.010847

 42 H s       :     0.918675  s :     0.918675
      pz      :     0.022248  p :     0.043492
      px      :     0.010068
      py      :     0.011175

 43 H s       :     0.904331  s :     0.904331
      pz      :     0.010341  p :     0.044494
      px      :     0.014239
      py      :     0.019914

 44 H s       :     0.916870  s :     0.916870
      pz      :     0.022910  p :     0.043938
      px      :     0.010018
      py      :     0.011010

 45 H s       :     0.916088  s :     0.916088
      pz      :     0.017831  p :     0.051173
      px      :     0.017627
      py      :     0.015714

 46 H s       :     0.898070  s :     0.898070
      pz      :     0.014343  p :     0.052204
      px      :     0.017445
      py      :     0.020416

 47 H s       :     0.906360  s :     0.906360
      pz      :     0.016295  p :     0.051803
      px      :     0.014946
      py      :     0.020562

 48 H s       :     0.903720  s :     0.903720
      pz      :     0.015987  p :     0.052482
      px      :     0.013583
      py      :     0.022913

 49 H s       :     0.899575  s :     0.899575
      pz      :     0.015049  p :     0.052287
      px      :     0.014715
      py      :     0.022523

 50 H s       :     0.910015  s :     0.910015
      pz      :     0.016402  p :     0.051297
      px      :     0.015144
      py      :     0.019750

 51 H s       :     0.890281  s :     0.890281
      pz      :     0.016985  p :     0.054569
      px      :     0.015904
      py      :     0.021680

 52 H s       :     0.900362  s :     0.900362
      pz      :     0.015808  p :     0.052261
      px      :     0.011346
      py      :     0.025107

 53 H s       :     0.914902  s :     0.914902
      pz      :     0.022973  p :     0.050910
      px      :     0.010206
      py      :     0.017731



                     *******************************
                     * LOEWDIN POPULATION ANALYSIS *
                     *******************************

----------------------
LOEWDIN ATOMIC CHARGES
----------------------
   0 C :   -0.109699
   1 C :   -0.079870
   2 C :   -0.072137
   3 C :   -0.018266
   4 C :   -0.030682
   5 C :    0.048028
   6 F :   -0.065692
   7 C :   -0.038132
   8 C :   -0.016951
   9 C :   -0.015156
  10 C :    0.056624
  11 F :   -0.050287
  12 C :   -0.030736
  13 C :   -0.026990
  14 O :   -0.096460
  15 O :    0.033554
  16 C :   -0.008255
  17 C :   -0.010687
  18 C :    0.042412
  19 F :   -0.069078
  20 C :   -0.039327
  21 C :   -0.031670
  22 C :   -0.021403
  23 C :    0.037382
  24 F :   -0.062419
  25 C :    0.038429
  26 F :   -0.055981
  27 C :    0.038624
  28 F :   -0.060465
  29 C :   -0.013044
  30 C :   -0.013576
  31 C :   -0.027285
  32 C :    0.052554
  33 F :   -0.059416
  34 C :   -0.016579
  35 C :    0.048153
  36 F :   -0.066672
  37 C :   -0.031807
  38 H :    0.041400
  39 H :    0.042306
  40 H :    0.046727
  41 H :    0.047405
  42 H :    0.044632
  43 H :    0.056222
  44 H :    0.053470
  45 H :    0.054567
  46 H :    0.059269
  47 H :    0.060984
  48 H :    0.056762
  49 H :    0.058974
  50 H :    0.055890
  51 H :    0.052343
  52 H :    0.058659
  53 H :    0.053351

-------------------------------
LOEWDIN REDUCED ORBITAL CHARGES
-------------------------------
  0 C s       :     0.765717  s :     0.765717
      pz      :     1.062382  p :     3.098496
      px      :     1.048573
      py      :     0.987540
      dz2     :     0.058282  d :     0.245486
      dxz     :     0.015969
      dyz     :     0.060153
      dx2y2   :     0.071507
      dxy     :     0.039574

[...]
  28 F       0.102788      0.040718     -0.079863      0.005296      0.000503     -0.115903     -0.051032      0.040012      0.068723     -0.067165
  29 C       0.647118      0.213110      0.042412      0.116207      0.109501     -0.286657     -0.062543      0.001175      0.106001     -0.051903
  30 C      -0.496948     -0.217546     -0.002353      0.006561      0.085737      0.262492     -0.108162      0.041261      0.193414     -0.022122
  31 C       0.544355     -0.248146      0.008933     -0.144119     -0.015341     -0.279314      0.130613     -0.112099      0.171551     -0.091398
  32 C      -0.472292      0.276301      0.030660     -0.085376      0.088821      0.186710     -0.034051     -0.106753     -0.085964      0.089572
  33 F      -0.050127     -0.016066      0.022541      0.081735      0.001696     -0.133048      0.016764      0.042884     -0.010014     -0.086867
  34 C       0.483735      0.053452      0.147750      0.372278     -0.099874     -0.199595      0.018484      0.045394      0.001792     -0.063619
  35 C      -0.482441      0.088221     -0.276671     -0.124052      0.124715     -0.053675     -0.114773      0.083444     -0.124482      0.102902
  36 F      -0.057646     -0.126506      0.084972      0.036740     -0.073585      0.008741      0.079877     -0.070126      0.031583      0.023332
  37 C       0.317377     -0.156310      0.051001      0.206316     -0.343911     -0.010521      0.093981     -0.134989     -0.039953     -0.010788
  38 H       0.036083     -0.010420     -0.041210     -0.004641     -0.018650     -0.001281     -0.000288      0.005577     -0.018462     -0.007235
  39 H      -0.055540     -0.034495      0.023814     -0.014281      0.002625     -0.020934      0.000803     -0.018712     -0.000204     -0.019578
  40 H       0.051140      0.024090      0.052742      0.007224      0.010853      0.006245      0.001167      0.011007      0.011750      0.000665
  41 H       0.034472      0.014313     -0.047517      0.003591     -0.009889      0.022174      0.001020      0.016220     -0.008267      0.010383
  42 H      -0.052243     -0.010833      0.035612     -0.003520      0.015028     -0.007726      0.000162     -0.013706      0.018687      0.001256
  43 H       0.028876     -0.041702      0.041197     -0.011192      0.008721      0.001214     -0.002252      0.004779      0.006917     -0.016405
  44 H       0.003160      0.034212     -0.032893      0.015214     -0.013900     -0.007837     -0.003134     -0.004746     -0.014368      0.007645
  45 H       0.043733     -0.013274      0.024115     -0.003782      0.007531      0.010588     -0.000963      0.010663      0.007233     -0.006930
  46 H       0.044190     -0.034621      0.000598     -0.011676     -0.003551      0.012308     -0.000314      0.011025      0.001906     -0.010068
  47 H       0.030312      0.033930     -0.015984      0.010835     -0.006271      0.009022     -0.000310      0.008691     -0.008124      0.011046
  48 H       0.031990     -0.039697     -0.017397     -0.014172     -0.009197      0.009127      0.000388      0.007507     -0.007281     -0.011063
  49 H       0.038910      0.039855      0.010834      0.013185      0.006449      0.009770      0.000610      0.008523      0.005137      0.011247
  50 H      -0.038409     -0.040514      0.025014     -0.013724      0.012802     -0.006983     -0.001082     -0.007790      0.012614     -0.011828
  51 H       0.026742     -0.043876      0.027365     -0.018057      0.007697      0.005325     -0.000371      0.007659      0.012344     -0.014910
  52 H       0.028391      0.043855     -0.010527      0.017299     -0.005388      0.007154     -0.000661      0.005658     -0.006098      0.012795
  53 H       0.015048      0.022511     -0.034658      0.010592     -0.012683      0.005355      0.000282      0.004572     -0.011864      0.009436

 MBIS THIRD RADIAL MOMENT (A.U.):
  ATOM      <r^3>
   0 C   43.746638
   1 C   41.105976
   2 C   41.782670
   3 C   33.345568
   4 C   41.019459
   5 C   29.787643
   6 F   18.080708
   7 C   38.865656
   8 C   32.191021
   9 C   40.446908
  10 C   28.776078
  11 F   18.096329
  12 C   41.931390
  13 C   22.320127
  14 O   25.788715
  15 O   23.895290
  16 C   29.519373
  17 C   41.048956
  18 C   29.889217
  19 F   18.115154
  20 C   37.129252
  21 C   33.514813
  22 C   39.947050
  23 C   31.645418
  24 F   18.107961
  25 C   33.825077
  26 F   17.901051
  27 C   31.614863
  28 F   18.090473
  29 C   39.646033
  30 C   36.393945
  31 C   39.908844
  32 C   28.916784
  33 F   18.091634
  34 C   40.518245
  35 C   29.794654
  36 F   18.088997
  37 C   41.351690
  38 H    2.423311
  39 H    2.223768
  40 H    2.383010
  41 H    2.344844
  42 H    2.297572
  43 H    2.238200
  44 H    2.215731
  45 H    2.007871
  46 H    1.907934
  47 H    1.903165
  48 H    1.973558
  49 H    1.923469
  50 H    2.129503
  51 H    1.912152
  52 H    1.914742
  53 H    2.007161

-------------------------
RESP CHARGES GENERATION
-------------------------
Number of atoms                    ...           54
Number of "pure atoms"             ...           54
Grid spacing                       ...     0.300000
Point Cut-Off                      ...     2.800000
Van-der-Waals Radii                ...        COSMO
Total charge                       ...            0
Penalty function                   ... hyperbolic
Penalty function wa                ... 0.000500
Penalty function wb                ... 0.100000
Dipole moment constraint           ...        FALSE
Equivalent atom charge constraint  ...        FALSE

Grid generated                     ...      0.0 sec
Grid points                        ...        28020
Potential calculated               ...      9.9 sec
RespFile stored                    ...           ok

Iter     dqmax
--------------

0     0.889988
1     0.039877
2     0.004940
3     0.000641
4     0.000083
5     0.000011
6     0.000001
7     0.000000

Charges calculated                 ...      1.9 sec

RESP Charges            
--------------------------------
  0   C   :      -0.359209
  1   C   :       0.265734
  2   C   :      -0.283093
  3   C   :       0.273440
  4   C   :      -0.403638
  5   C   :       0.336906
  6   F   :      -0.190862
  7   C   :      -0.285899
  8   C   :       0.416224
  9   C   :      -0.530572
 10   C   :       0.530823
 11   F   :      -0.214290
 12   C   :      -0.558972
 13   C   :       0.883663
 14   O   :      -0.522383
 15   O   :      -0.374589
 16   C   :       0.419422
 17   C   :      -0.451418
 18   C   :       0.331104
 19   F   :      -0.197060
 20   C   :       0.002142
 21   C   :       0.130541
 22   C   :      -0.401856
 23   C   :       0.297634
 24   F   :      -0.182629
 25   C   :       0.101004
 26   F   :      -0.152050
 27   C   :       0.316864
 28   F   :      -0.184954
 29   C   :      -0.424810
 30   C   :      -0.158801
 31   C   :      -0.390982
 32   C   :       0.489373
 33   F   :      -0.209047
 34   C   :      -0.502152
 35   C   :       0.404223
 36   F   :      -0.208713
 37   C   :      -0.497187
 38   H   :       0.088941
 39   H   :       0.101817
 40   H   :       0.078036
 41   H   :      -0.025401
 42   H   :      -0.022616
 43   H   :       0.073627
 44   H   :       0.109090
 45   H   :       0.213519
 46   H   :       0.250510
 47   H   :       0.250273
 48   H   :       0.224653
 49   H   :       0.246339
 50   H   :       0.180114
 51   H   :       0.240273
 52   H   :       0.244184
 53   H   :       0.232708
--------------------------------
Total charge:    -0.000000
--------------------------------

RESP charges calculated...

Timings:
Grid generation                 ...        0.022 sec (=   0.000 min)
Potential calculation           ...        9.890 sec (=   0.165 min)
Fit to the potential            ...        1.947 sec (=   0.032 min)
------------------------------------------------------------------------------

-------
TIMINGS
-------

Total SCF time: 0 days 0 hours 10 min 39 sec 

Total time                  ....     639.243 sec
Sum of individual times     ....     618.342 sec  ( 96.7%)

SCF preparation             ....       1.758 sec  (  0.3%)
Fock matrix formation       ....     501.339 sec  ( 78.4%)
  Startup                   ....       0.044 sec  (  0.0% of F)
  Split-RI-J                ....      36.715 sec  (  7.3% of F)
  Chain of spheres X        ....     469.886 sec  ( 93.7% of F)
  XC integration            ....      14.752 sec  (  2.9% of F)
    XC Preparation          ....       0.000 sec  (  0.0% of XC)
    Basis function eval.    ....       4.147 sec  ( 28.1% of XC)
    Density eval.           ....       3.614 sec  ( 24.5% of XC)
    XC-Functional eval.     ....       0.984 sec  (  6.7% of XC)
    XC-Potential eval.      ....       4.407 sec  ( 29.9% of XC)
Diagonalization             ....       0.000 sec  (  0.0%)
Density matrix formation    ....       0.303 sec  (  0.0%)
Total Energy calculation    ....       0.161 sec  (  0.0%)
Population analysis         ....     112.376 sec  ( 17.6%)
Orbital Transformation      ....       0.267 sec  (  0.0%)
Orbital Orthonormalization  ....       0.000 sec  (  0.0%)
DIIS solution               ....       1.401 sec  (  0.2%)
SOSCF solution              ....       0.737 sec  (  0.1%)
Finished LeanSCF after 639.3 sec

Maximum memory used throughout the entire LEANSCF-calculation: 118.3 MB


-------------------------------------------------------------------------------
                          DFT DISPERSION CORRECTION                            
                                                                               
                                DFTD4 V3.4.0                                   
-------------------------------------------------------------------------------
The wB97X-3c composite method is recognized
Using three-body term ABC
Active option DFTDOPT                   ...         5   

-------------------------   ----------------
Dispersion correction           -0.088437836
-------------------------   ----------------


-------------------------   --------------------
FINAL SINGLE POINT ENERGY      -395.799536678683
-------------------------   --------------------



           ************************************************************
           *        Program running with 4 parallel MPI-processes     *
           *              working on a common directory               *
           ************************************************************

------------------------------------------------------------------------------
                              ORCA PROPERTY CALCULATIONS
------------------------------------------------------------------------------

GBWName                                 ... conf_004.gbw
Number of atoms                         ...     54
Number of basis functions               ...    574
Max core memory                         ...   4000 MB

Electric properties:
Dipole moment                           ... YES
Quadrupole moment                       ...  NO
Static polarizability (Dipole/Dipole)   ...  NO
Static polarizability (Dipole/Quad.)    ...  NO
Static polarizability (Quad./Quad.)     ...  NO
Static polarizability (Velocity)        ...  NO
Static hyperpolarizability              ...  NO

Atomic electric properties:
Dipole moment                           ...  NO
Quadrupole moment                       ...  NO
Static polarizability                   ...  NO

Choice of electric origin               ... Center of mass
Position of electric origin             ...    -2.741992    -0.396167     0.282496

General magnetic properties:
Magnetizability                         ...  NO

EPR properties:
g-Tensor (aka g-matrix)                 ...  NO
Zero-Field splitting spin-orbit         ...  NO
Zero-field splitting spin-spin          ...  NO
Hyperfine couplings                     ...  NO (   0 nuclei)
Quadrupole couplings                    ...  NO (   0 nuclei)
Contact density                         ...  NO (   0 nuclei)

NMR properties:
Chemical shifts                         ...  NO (   0 nuclei)
Spin-rotation constants                 ...  NO (   0 nuclei)
Spin-spin couplings                     ...  NO (   0 nuclei,    0 pairs)

Choice of magnetic origin               ... GIAO
Position of magnetic origin             ...     0.000000     0.000000     0.000000

Properties with geometric perturbations:
SCF Hessian                             ...  NO
IR spectrum                             ...  NO
VCD spectrum                            ...  NO
X-ray spectroscopy properties:
SCF XES/XAS/RIXS spectra                ...  NO

SCF SOC stabilization energy            ...  NO
Diagonal Born-Oppenheimer correction    ...  NO

-------------
DIPOLE MOMENT
-------------

Method             : SCF
Type of density    : Electron Density
Multiplicity       :   1
Irrep              :   0
Energy             :  -395.7110988422731452 Eh
Basis              : AO
                                X                 Y                 Z
Electronic contribution:    -64.494966382     -12.751378028       4.093078178
Nuclear contribution   :     68.205052292      13.033544333      -4.714212203
                        -----------------------------------------
Total Dipole Moment    :      3.710085910       0.282166305      -0.621134026
                        -----------------------------------------
Magnitude (a.u.)       :      3.772288796
Magnitude (Debye)      :      9.588396117



--------------------
Rotational spectrum 
--------------------
 
Rotational constants in cm-1:             0.011742             0.000780             0.000750 
Rotational constants in MHz :           352.021838            23.395688            22.492440 

Dipole components along the rotational axes: 
x,y,z [a.u.] :    -3.738506    -0.320167     0.388885 
x,y,z [Debye]:    -9.502526    -0.813801     0.988466 

 

Dipole moment calculation done in   0.0 sec 

Maximum memory used throughout the entire PROP-calculation: 58.2 MB

--------------------------------
SUGGESTED CITATIONS FOR THIS RUN
--------------------------------

Below you find a list of papers that are relevant to this ORCA run
We neither can nor want to force you to cite these papers, but we appreciate if you do
You receive ORCA, which is the product of decades of hard work by many enthusiastic individuals, for free
The only thing we kindly ask in return is that you cite our papers,
We deeply appreciate it, if you show your appreciation for ORCA by not just citing the generic ORCA reference.

Please note that relegating all ORCA citations to the supporting information does *not* help us.
SI sections are not indexed - citations you put there will not count into any citation statistics
But we need these citations in order to attract the funding resources that allow us to do what we are doing

Therefore, if you are a happy ORCA user, please consider citing a few of the papers listed below in the main body of your paper

In addition to the list printed below, the program has created the file conf_004.bibtex that contains the list in bibtex format
You can import this file easily into all common literature databanks and citation aid programs


List of essential papers. We consider these as the minimum necessary citations

  1. Mueller, M.; Hansen, A.; Grimme, S.
     wB97X-3c: A composite range-separated hybrid DFT method with a molecule-optimized polarized valence double-zeta basis set
     J. Chem. Phys. 2023 158 , 014103
     doi.org/10.1063/5.0133026
  2. Neese, F.
     Software update: the ORCA program system, version 6.0
     WIRES Comput. Molec. Sci. 2025 15(1), e70019
     doi.org/10.1002/wcms.7019

List of papers to cite with high priority. The work reported in these papers was absolutely
necessary for this run to complete.
Our perspective: the developers of density functionals and basis sets usually get cited in chemistry papers
Good! But without the algorithms to do something with them, the functionals or basis sets would not do anything.
Hence, in our opinion, the algorithm design and method developments papers are equally worthy of getting cited

  1. Neese, F.
     An improvement of the resolution of the identity approximation for the formation of the Coulomb matrix
     J. Comp. Chem. 2003 24(14), 1740-1747
     doi.org/10.1002/jcc.10318
  2. Neese, F.; Wennmohs, F.; Hansen, A.; Becker, U.
     Efficient, approximate and parallel Hartree-Fock and hybrid DFT calculations. A 'chain-of-spheres' algorithm for the Hartree-Fock exchange
     Chem. Phys. 2009 356(1-3), 98-109
     doi.org/10.1016/j.chemphys.2008.10.036
  3. Caldeweyher, E.; Bannwarth, C.; Grimme, S.
     Extension of the D3 dispersion coefficient model
     J. Chem. Phys. 2017 147 , 034112
     doi.org/10.1063/1.4993215
  4. Caldeweyher, E.; Ehlert, S.; Hansen, A.; Neugebauer, H.; Spicher, S.; Bannwarth, C.; Grimme, S.
     A generally applicable atomic-charge dependent London dispersion correction
     J. Chem. Phys. 2019 150 , 154122
     doi.org/10.1063/1.5090222
  5. Caldeweyher, E.; Mewes, J.; Ehlert, S.; Grimme, S.
     Extension and evaluation of the D4 London-dispersion model for periodic systems
     Phys. Chem. Chem. Phys. 2020 22(16), 8499-8512
     doi.org/10.1039/D0CP00502A
  6. Helmich-Paris, B.; de Souza, B.; Neese, F.; Izsák, R.
     An improved chain of spheres for exchange algorithm
     J. Chem. Phys. 2021 155(10), 104109
     doi.org/10.1063/5.0058766
  7. Neese, F.
     The SHARK Integral Generation and Digestion System
     J. Comp. Chem. 2022 44(3), 381
     doi.org/10.1002/jcc.26942
  8. Wittmann, L.; Gordiy, I.; Friede, M.; Helmich-Paris, B.; Grimme, S.; Hansen, A.; Bursch, M.
     Extension of the D3 and D4 London Dispersion Corrections to the full Actinides Series
     Phys. Chem. Chem. Phys. 2024 26(32), 21379-21394
     doi.org/10.1039/D4CP01514B

List of suggested additional citations. These are papers that are important in the 'surrounding' of 
of this run, or papers that preceded the highly important papers. If you like your results we are grateful for a citation.

  1. Izsak, R.; Neese, F.
     An overlap fitted chain of spheres exchange method
     J. Chem. Phys. 2011 135 , 144105
     doi.org/10.1063/1.3646921
  2. Izsak, R.; Hansen, A.; Neese, F.
     The resolution of identity and chain of spheres approximations for the LPNO-CCSD singles Fock term
     Molec. Phys. 2012 110 , 2413-2417
     doi.org/10.1080/00268976.2012.687466
  3. Neese, F.
     The ORCA program system
     WIRES Comput. Molec. Sci. 2012 2(1), 73-78
     doi.org/10.1002/wcms.81
  4. Izsak, R.; Neese, F.; Klopper, W.
     Robust fitting techniques in the chain of spheres approximation to the Fock exchange: The role of the complementary space
     J. Chem. Phys. 2013 139 , 
     doi.org/10.1063/1.4819264
  5. Neese, F.
     Software update: the ORCA program system, version 4.0
     WIRES Comput. Molec. Sci. 2018 8(1), 1-6
     doi.org/10.1002/wcms.1327
  6. Neese, F.; Wennmohs, F.; Becker, U.; Riplinger, C.
     The ORCA quantum chemistry program package
     J. Chem. Phys. 2020 152(22), 224108
     doi.org/10.1063/5.0004608
  7. Neese, F.
     Software update: The ORCA program system—Version 5.0
     WIRES Comput. Molec. Sci. 2022 12(1), e1606
     doi.org/10.1002/wcms.1606

List of optional additional citations

  1. Neese, F.
     Approximate second-order SCF convergence for spin unrestricted wavefunctions
     Chem. Phys. Lett. 2000 325(1-3), 93-98
     doi.org/10.1016/s0009-2614(00)00662-x

Timings for individual modules:

Sum of individual times          ...      657.148 sec (=  10.952 min)
Startup calculation              ...        9.097 sec (=   0.152 min)   1.4 %
SCF iterations                   ...      646.197 sec (=  10.770 min)  98.3 %
Property calculations            ...        1.855 sec (=   0.031 min)   0.3 %
                             ****ORCA TERMINATED NORMALLY****
TOTAL RUN TIME: 0 days 0 hours 10 minutes 59 seconds 150 msec
